  -3.3333333333333335E-005     0.0000000000000000     
  -3.3133333333333337E-005     0.0000000000000000     
  -3.2933333333333332E-005     0.0000000000000000     
  -3.2733333333333334E-005     0.0000000000000000     
  -3.2533333333333336E-005     0.0000000000000000     
  -3.2333333333333338E-005     0.0000000000000000     
  -3.2133333333333333E-005     0.0000000000000000     
  -3.1933333333333335E-005     0.0000000000000000     
  -3.1733333333333337E-005     0.0000000000000000     
  -3.1533333333333332E-005     0.0000000000000000     
  -3.1333333333333334E-005     0.0000000000000000     
  -3.1133333333333336E-005     0.0000000000000000     
  -3.0933333333333338E-005     0.0000000000000000     
  -3.0733333333333333E-005     0.0000000000000000     
  -3.0533333333333335E-005     0.0000000000000000     
  -3.0333333333333337E-005     0.0000000000000000     
  -3.0133333333333335E-005     0.0000000000000000     
  -2.9933333333333334E-005     0.0000000000000000     
  -2.9733333333333336E-005     0.0000000000000000     
  -2.9533333333333334E-005     0.0000000000000000     
  -2.9333333333333336E-005     0.0000000000000000     
  -2.9133333333333334E-005     0.0000000000000000     
  -2.8933333333333336E-005     0.0000000000000000     
  -2.8733333333333335E-005     0.0000000000000000     
  -2.8533333333333333E-005     0.0000000000000000     
  -2.8333333333333335E-005     0.0000000000000000     
  -2.8133333333333337E-005     0.0000000000000000     
  -2.7933333333333336E-005     0.0000000000000000     
  -2.7733333333333334E-005     0.0000000000000000     
  -2.7533333333333336E-005     0.0000000000000000     
  -2.7333333333333335E-005     0.0000000000000000     
  -2.7133333333333333E-005     0.0000000000000000     
  -2.6933333333333335E-005     0.0000000000000000     
  -2.6733333333333337E-005     0.0000000000000000     
  -2.6533333333333336E-005     0.0000000000000000     
  -2.6333333333333334E-005     0.0000000000000000     
  -2.6133333333333336E-005     0.0000000000000000     
  -2.5933333333333335E-005     0.0000000000000000     
  -2.5733333333333333E-005     0.0000000000000000     
  -2.5533333333333335E-005     0.0000000000000000     
  -2.5333333333333337E-005     0.0000000000000000     
  -2.5133333333333336E-005     0.0000000000000000     
  -2.4933333333333334E-005     0.0000000000000000     
  -2.4733333333333336E-005     0.0000000000000000     
  -2.4533333333333334E-005     0.0000000000000000     
  -2.4333333333333333E-005     0.0000000000000000     
  -2.4133333333333335E-005     0.0000000000000000     
  -2.3933333333333337E-005     0.0000000000000000     
  -2.3733333333333335E-005     0.0000000000000000     
  -2.3533333333333334E-005     0.0000000000000000     
  -2.3333333333333336E-005     0.0000000000000000     
  -2.3133333333333338E-005     0.0000000000000000     
  -2.2933333333333336E-005     0.0000000000000000     
  -2.2733333333333335E-005     0.0000000000000000     
  -2.2533333333333337E-005     0.0000000000000000     
  -2.2333333333333335E-005     0.0000000000000000     
  -2.2133333333333334E-005     0.0000000000000000     
  -2.1933333333333336E-005     0.0000000000000000     
  -2.1733333333333338E-005     0.0000000000000000     
  -2.1533333333333336E-005     0.0000000000000000     
  -2.1333333333333335E-005     0.0000000000000000     
  -2.1133333333333337E-005     0.0000000000000000     
  -2.0933333333333335E-005     0.0000000000000000     
  -2.0733333333333334E-005     0.0000000000000000     
  -2.0533333333333336E-005     0.0000000000000000     
  -2.0333333333333337E-005     0.0000000000000000     
  -2.0133333333333336E-005     0.0000000000000000     
  -1.9933333333333334E-005     0.0000000000000000     
  -1.9733333333333336E-005     0.0000000000000000     
  -1.9533333333333335E-005     0.0000000000000000     
  -1.9333333333333333E-005     0.0000000000000000     
  -1.9133333333333335E-005     0.0000000000000000     
  -1.8933333333333337E-005     0.0000000000000000     
  -1.8733333333333336E-005     0.0000000000000000     
  -1.8533333333333334E-005     0.0000000000000000     
  -1.8333333333333336E-005     0.0000000000000000     
  -1.8133333333333335E-005     0.0000000000000000     
  -1.7933333333333337E-005     0.0000000000000000     
  -1.7733333333333335E-005     0.0000000000000000     
  -1.7533333333333337E-005     0.0000000000000000     
  -1.7333333333333336E-005     0.0000000000000000     
  -1.7133333333333334E-005     0.0000000000000000     
  -1.6933333333333336E-005     0.0000000000000000     
  -1.6733333333333335E-005     0.0000000000000000     
  -1.6533333333333337E-005     0.0000000000000000     
  -1.6333333333333335E-005     0.0000000000000000     
  -1.6133333333333337E-005     0.0000000000000000     
  -1.5933333333333336E-005     0.0000000000000000     
  -1.5733333333333334E-005     0.0000000000000000     
  -1.5533333333333336E-005     0.0000000000000000     
  -1.5333333333333334E-005     0.0000000000000000     
  -1.5133333333333336E-005     0.0000000000000000     
  -1.4933333333333335E-005     0.0000000000000000     
  -1.4733333333333337E-005     0.0000000000000000     
  -1.4533333333333335E-005     0.0000000000000000     
  -1.4333333333333337E-005     0.0000000000000000     
  -1.4133333333333336E-005     0.0000000000000000     
  -1.3933333333333334E-005     0.0000000000000000     
  -1.3733333333333336E-005     0.0000000000000000     
  -1.3533333333333335E-005     0.0000000000000000     
  -1.3333333333333337E-005     0.0000000000000000     
  -1.3133333333333335E-005     0.0000000000000000     
  -1.2933333333333337E-005     0.0000000000000000     
  -1.2733333333333336E-005     0.0000000000000000     
  -1.2533333333333338E-005     0.0000000000000000     
  -1.2333333333333336E-005     0.0000000000000000     
  -1.2133333333333335E-005     0.0000000000000000     
  -1.1933333333333337E-005     0.0000000000000000     
  -1.1733333333333335E-005     0.0000000000000000     
  -1.1533333333333337E-005     0.0000000000000000     
  -1.1333333333333336E-005     0.0000000000000000     
  -1.1133333333333337E-005     0.0000000000000000     
  -1.0933333333333336E-005     0.0000000000000000     
  -1.0733333333333334E-005     0.0000000000000000     
  -1.0533333333333336E-005     0.0000000000000000     
  -1.0333333333333335E-005     0.0000000000000000     
  -1.0133333333333337E-005     0.0000000000000000     
  -9.9333333333333354E-006     0.0000000000000000     
  -9.7333333333333373E-006     0.0000000000000000     
  -9.5333333333333358E-006     0.0000000000000000     
  -9.3333333333333343E-006     0.0000000000000000     
  -9.1333333333333362E-006     0.0000000000000000     
  -8.9333333333333348E-006     0.0000000000000000     
  -8.7333333333333367E-006     0.0000000000000000     
  -8.5333333333333352E-006     0.0000000000000000     
  -8.3333333333333371E-006     0.0000000000000000     
  -8.1333333333333356E-006     0.0000000000000000     
  -7.9333333333333376E-006     0.0000000000000000     
  -7.7333333333333361E-006     0.0000000000000000     
  -7.5333333333333346E-006     0.0000000000000000     
  -7.3333333333333365E-006     0.0000000000000000     
  -7.1333333333333351E-006     0.0000000000000000     
  -6.9333333333333370E-006     0.0000000000000000     
  -6.7333333333333355E-006     0.0000000000000000     
  -6.5333333333333374E-006     0.0000000000000000     
  -6.3333333333333359E-006     0.0000000000000000     
  -6.1333333333333379E-006     0.0000000000000000     
  -5.9333333333333364E-006     0.0000000000000000     
  -5.7333333333333349E-006     0.0000000000000000     
  -5.5333333333333368E-006     0.0000000000000000     
  -5.3333333333333354E-006     0.0000000000000000     
  -5.1333333333333373E-006     0.0000000000000000     
  -4.9333333333333358E-006     0.0000000000000000     
  -4.7333333333333377E-006     0.0000000000000000     
  -4.5333333333333362E-006     0.0000000000000000     
  -4.3333333333333348E-006     0.0000000000000000     
  -4.1333333333333367E-006     0.0000000000000000     
  -3.9333333333333352E-006     0.0000000000000000     
  -3.7333333333333371E-006     0.0000000000000000     
  -3.5333333333333356E-006     0.0000000000000000     
  -3.3333333333333376E-006     0.0000000000000000     
  -3.1333333333333361E-006     0.0000000000000000     
  -2.9333333333333346E-006     0.0000000000000000     
  -2.7333333333333365E-006     0.0000000000000000     
  -2.5333333333333384E-006     0.0000000000000000     
  -2.3333333333333336E-006     0.0000000000000000     
  -2.1333333333333355E-006     0.0000000000000000     
  -1.9333333333333374E-006     0.0000000000000000     
  -1.7333333333333393E-006     0.0000000000000000     
  -1.5333333333333345E-006     0.0000000000000000     
  -1.3333333333333364E-006     0.0000000000000000     
  -1.1333333333333383E-006     0.0000000000000000     
  -9.3333333333333343E-007     0.0000000000000000     
  -7.3333333333333535E-007     0.0000000000000000     
  -5.3333333333333726E-007     0.0000000000000000     
  -3.3333333333333918E-007     0.0000000000000000     
  -1.3333333333333432E-007     0.0000000000000000     
   6.6666666666663770E-008     0.0000000000000000     
   2.6666666666666185E-007     0.0000000000000000     
   4.6666666666666672E-007     0.0000000000000000     
   6.6666666666666480E-007     0.0000000000000000     
   8.6666666666666289E-007     0.0000000000000000     
   1.0666666666666610E-006     0.0000000000000000     
   1.2666666666666658E-006     0.0000000000000000     
   1.4666666666666639E-006     0.0000000000000000     
   1.6666666666666620E-006     0.0000000000000000     
   1.8666666666666669E-006     0.0000000000000000     
   2.0666666666666649E-006     0.0000000000000000     
   2.2666666666666630E-006     0.0000000000000000     
   2.4666666666666611E-006     0.0000000000000000     
   2.6666666666666660E-006     0.0000000000000000     
   2.8666666666666641E-006     0.0000000000000000     
   3.0666666666666622E-006     0.0000000000000000     
   3.2666666666666602E-006     0.0000000000000000     
   3.4666666666666651E-006     0.0000000000000000     
   3.6666666666666632E-006     0.0000000000000000     
   3.8666666666666613E-006     0.0000000000000000     
   4.0666666666666661E-006     0.0000000000000000     
   4.2666666666666642E-006     0.0000000000000000     
   4.4666666666666623E-006     0.0000000000000000     
   4.6666666666666604E-006     0.0000000000000000     
   4.8666666666666652E-006     0.0000000000000000     
   5.0666666666666633E-006     0.0000000000000000     
   5.2666666666666614E-006     0.0000000000000000     
   5.4666666666666663E-006     0.0000000000000000     
   5.6666666666666644E-006     0.0000000000000000     
   5.8666666666666624E-006     0.0000000000000000     
   6.0666666666666605E-006     0.0000000000000000     
   6.2666666666666654E-006     0.0000000000000000     
   6.4666666666666635E-006     0.0000000000000000     
   6.6666666666666616E-006     0.0000000000000000     
   6.8666666666666664E-006     0.0000000000000000     
   7.0666666666666645E-006     0.0000000000000000     
   7.2666666666666626E-006     0.0000000000000000     
   7.4666666666666607E-006     0.0000000000000000     
   7.6666666666666655E-006     0.0000000000000000     
   7.8666666666666636E-006     0.0000000000000000     
   8.0666666666666617E-006     0.0000000000000000     
   8.2666666666666598E-006     0.0000000000000000     
   8.4666666666666647E-006     0.0000000000000000     
   8.6666666666666627E-006     0.0000000000000000     
   8.8666666666666608E-006     0.0000000000000000     
   9.0666666666666657E-006     0.0000000000000000     
   9.2666666666666638E-006     0.0000000000000000     
   9.4666666666666619E-006     0.0000000000000000     
   9.6666666666666599E-006     0.0000000000000000     
   9.8666666666666648E-006     0.0000000000000000     
   1.0066666666666663E-005     0.0000000000000000     
   1.0266666666666661E-005     0.0000000000000000     
   1.0466666666666666E-005     0.0000000000000000     
   1.0666666666666664E-005     0.0000000000000000     
   1.0866666666666662E-005     0.0000000000000000     
   1.1066666666666660E-005     0.0000000000000000     
   1.1266666666666665E-005     0.0000000000000000     
   1.1466666666666663E-005     0.0000000000000000     
   1.1666666666666661E-005     0.0000000000000000     
   1.1866666666666666E-005     0.0000000000000000     
   1.2066666666666664E-005     0.0000000000000000     
   1.2266666666666662E-005     0.0000000000000000     
   1.2466666666666660E-005     0.0000000000000000     
   1.2666666666666665E-005     0.0000000000000000     
   1.2866666666666663E-005     0.0000000000000000     
   1.3066666666666661E-005     0.0000000000000000     
   1.3266666666666666E-005     0.0000000000000000     
   1.3466666666666664E-005     0.0000000000000000     
   1.3666666666666662E-005     0.0000000000000000     
   1.3866666666666660E-005     0.0000000000000000     
   1.4066666666666665E-005     0.0000000000000000     
   1.4266666666666663E-005     0.0000000000000000     
   1.4466666666666661E-005     0.0000000000000000     
   1.4666666666666666E-005     0.0000000000000000     
   1.4866666666666664E-005     0.0000000000000000     
   1.5066666666666662E-005     1.5526154369173895E-038
   1.5266666666666661E-005     3.6058111190516761E-038
   1.5466666666666665E-005     6.0165635186415474E-038
   1.5666666666666663E-005     7.9982472967653314E-038
   1.5866666666666662E-005     7.9982472967653314E-038
   1.6066666666666660E-005     7.9982472967653314E-038
   1.6266666666666665E-005     5.4031972441862316E-038
   1.6466666666666663E-005    -1.7162751865135814E-038
   1.6666666666666661E-005    -8.3159670606980115E-038
   1.6866666666666666E-005    -1.2341246785696379E-037
   1.7066666666666664E-005    -1.1789792119472476E-037
   1.7266666666666662E-005    -5.8034663796135153E-038
   1.7466666666666660E-005     3.6154100135323011E-038
   1.7666666666666665E-005     1.3606377154607053E-037
   1.7866666666666663E-005     3.1034539152781380E-037
   1.8066666666666661E-005     4.3885963957136509E-037
   1.8266666666666666E-005     5.6737391003569182E-037
   1.8466666666666664E-005     6.9588818050001854E-037
   1.8666666666666662E-005     6.8710040241209560E-037
   1.8866666666666660E-005     4.9524327109605732E-037
   1.9066666666666665E-005     7.4549459455262565E-038
   1.9266666666666663E-005    -6.3219026424861021E-037
   1.9466666666666661E-005    -1.4762319244008555E-036
   1.9666666666666666E-005    -2.3202736742362025E-036
   1.9866666666666664E-005    -3.2558499437401792E-036
   2.0066666666666662E-005    -3.8252874171048234E-036
   2.0266666666666660E-005    -3.6624476569232097E-036
   2.0466666666666665E-005    -2.9503995231663940E-036
   2.0666666666666663E-005    -1.5060741558633202E-036
   2.0866666666666661E-005     8.5359811210498281E-037
   2.1066666666666659E-005     4.1286171910554135E-036
   2.1266666666666664E-005     8.3189837087696837E-036
   2.1466666666666662E-005     1.3150092581629175E-035
   2.1666666666666660E-005     1.7248924579674816E-035
   2.1866666666666665E-005     1.9517060444629353E-035
   2.2066666666666663E-005     1.8856087375398859E-035
   2.2266666666666661E-005     1.6730559121611035E-035
   2.2466666666666659E-005     1.0211367466545663E-035
   2.2666666666666664E-005    -7.0148920409308797E-037
   2.2866666666666662E-005    -1.2346623825742910E-035
   2.3066666666666660E-005    -2.1794926567387755E-035
   2.3266666666666665E-005    -2.6849565190290239E-035
   2.3466666666666663E-005    -2.6778260667242069E-035
   2.3666666666666661E-005    -1.7187348879500883E-035
   2.3866666666666660E-005    -1.7382170709951924E-036
   2.4066666666666664E-005     2.8356465148154167E-035
   2.4266666666666662E-005     6.4309373127786542E-035
   2.4466666666666661E-005     1.0026227536770041E-034
   2.4666666666666665E-005     1.3328606723849961E-034
   2.4866666666666663E-005     1.4287698763581856E-034
   2.5066666666666662E-005     1.2903502508022024E-034
   2.5266666666666660E-005     8.5901970312912340E-035
   2.5466666666666665E-005     1.0548701485343190E-035
   2.5666666666666663E-005    -8.9702002609841309E-035
   2.5866666666666661E-005    -2.0166914244176594E-034
   2.6066666666666666E-005    -3.3121093874866001E-034
   2.6266666666666664E-005    -4.4903627062022140E-034
   2.6466666666666662E-005    -5.3171232398015497E-034
   2.6666666666666660E-005    -5.2065684552841943E-034
   2.6866666666666665E-005    -3.9243699822984560E-034
   2.7066666666666663E-005    -1.5876917764314404E-034
   2.7266666666666661E-005     1.9206302326983284E-034
   2.7466666666666666E-005     6.1319382712381346E-034
   2.7666666666666664E-005     1.0284664561573128E-033
   2.7866666666666662E-005     1.3265745785907297E-033
   2.8066666666666667E-005     1.4020704277658026E-033
   2.8266666666666658E-005     1.1729389363061952E-033
   2.8466666666666663E-005     5.2201555169407691E-034
   2.8666666666666668E-005    -4.5696810242338711E-034
   2.8866666666666659E-005    -1.7171463519758584E-033
   2.9066666666666664E-005    -3.0710559496690065E-033
   2.9266666666666669E-005    -4.3312341992214778E-033
   2.9466666666666660E-005    -5.1227544223736190E-033
   2.9666666666666665E-005    -5.0238255524923846E-033
   2.9866666666666656E-005    -4.1750444281177973E-033
   3.0066666666666661E-005    -2.0608880834631580E-033
   3.0266666666666666E-005     9.9058330380168373E-034
   3.0466666666666657E-005     4.7919071292308706E-033
   3.0666666666666662E-005     8.2183049192488773E-033
   3.0866666666666667E-005     1.0519925062210824E-032
   3.1066666666666658E-005     1.1696766823432742E-032
   3.1266666666666663E-005     1.0436589124893247E-032
   3.1466666666666668E-005     4.4898359377962518E-033
   3.1666666666666659E-005    -4.8312516598368618E-033
   3.1866666666666664E-005    -1.8463987884096831E-032
   3.2066666666666656E-005    -3.4721205529715596E-032
   3.2266666666666660E-005    -5.0978421705966423E-032
   3.2466666666666665E-005    -6.4236234741715592E-032
   3.2666666666666657E-005    -7.0370452094461880E-032
   3.2866666666666661E-005    -6.3757179651453231E-032
   3.3066666666666666E-005    -3.6522973883297228E-032
   3.3266666666666658E-005     1.0207386828266102E-032
   3.3466666666666662E-005     7.0997472536133996E-032
   3.3666666666666667E-005     1.3609920613594478E-031
   3.3866666666666659E-005     1.9220273031425059E-031
   3.4066666666666664E-005     2.2356113450237957E-031
   3.4266666666666668E-005     2.1367767204021384E-031
   3.4466666666666660E-005     1.4230633352580082E-031
   3.4666666666666665E-005     7.9474232663614201E-033
   3.4866666666666656E-005    -1.8340022894721402E-031
   3.5066666666666661E-005    -4.0624167878824615E-031
   3.5266666666666666E-005    -6.3658163060306067E-031
   3.5466666666666657E-005    -8.1593159972496843E-031
   3.5666666666666662E-005    -8.7530525514771378E-031
   3.5866666666666667E-005    -7.7271083535483843E-031
   3.6066666666666658E-005    -4.5415906030742555E-031
   3.6266666666666663E-005     6.8352469187461751E-032
   3.6466666666666668E-005     7.9482376488476697E-031
   3.6666666666666659E-005     1.6172761609121649E-030
   3.6866666666666664E-005     2.3797403530702075E-030
   3.7066666666666669E-005     2.9022517297508292E-030
   3.7266666666666660E-005     2.9928484899619239E-030
   3.7466666666666665E-005     2.5075587187221236E-030
   3.7666666666666656E-005     1.3983920598229500E-030
   3.7866666666666661E-005    -3.3465155726525808E-031
   3.8066666666666666E-005    -2.5955912085365605E-030
   3.8266666666666657E-005    -5.0244976942847130E-030
   3.8466666666666662E-005    -7.2134517407136367E-030
   3.8666666666666667E-005    -8.8265188795334733E-030
   3.8866666666666658E-005    -9.0958511544594139E-030
   3.9066666666666663E-005    -7.3495818858608952E-030
   3.9266666666666668E-005    -2.9158421371582000E-030
   3.9466666666666659E-005     3.6294811840395843E-030
   3.9666666666666664E-005     1.1710501922439755E-029
   3.9866666666666655E-005     1.9695542136502065E-029
   4.0066666666666660E-005     2.6144887190311142E-029
   4.0266666666666665E-005     2.9714796953758399E-029
   4.0466666666666656E-005     2.9253500620891199E-029
   4.0666666666666661E-005     2.4185113541049608E-029
   4.0866666666666666E-005     1.4125713616882184E-029
   4.1066666666666657E-005     2.2706902123421642E-031
   4.1266666666666662E-005    -1.4439423530698560E-029
   4.1466666666666667E-005    -2.6034522376701139E-029
   4.1666666666666658E-005    -3.3022530475729329E-029
   4.1866666666666663E-005    -3.5787368420501801E-029
   4.2066666666666668E-005    -3.3177266909698691E-029
   4.2266666666666660E-005    -2.9799315185661617E-029
   4.2466666666666664E-005    -2.3349971636485309E-029
   4.2666666666666656E-005    -1.2293536588018226E-029
   4.2866666666666661E-005     1.0280626080201217E-029
   4.3066666666666665E-005     3.3622638209338239E-029
   4.3266666666666657E-005     6.1187811464934363E-029
   4.3466666666666662E-005     9.3360079981403184E-029
   4.3666666666666666E-005     1.3167513214815047E-028
   4.3866666666666658E-005     1.6691879549902407E-028
   4.4066666666666663E-005     1.7759130017465948E-028
   4.4266666666666667E-005     1.6983544788092840E-028
   4.4466666666666659E-005     1.2829424639021375E-028
   4.4666666666666664E-005     5.9110503426918290E-029
   4.4866666666666655E-005    -3.9251484444691437E-029
   4.5066666666666660E-005    -1.5911323013860350E-028
   4.5266666666666665E-005    -3.0354613149848821E-028
   4.5466666666666656E-005    -4.4797900878424861E-028
   4.5666666666666661E-005    -5.6784075146889513E-028
   4.5866666666666666E-005    -6.0170346286433232E-028
   4.6066666666666657E-005    -5.8642385690929313E-028
   4.6266666666666662E-005    -5.0971633019203418E-028
   4.6466666666666667E-005    -3.2858146336444802E-028
   4.6666666666666658E-005    -1.1058984648694243E-028
   4.6866666666666663E-005     5.8259434984493570E-029
   4.7066666666666668E-005     2.7625103380640593E-028
   4.7266666666666659E-005     5.4338495599732574E-028
   4.7466666666666664E-005     8.1051885411412125E-028
   4.7666666666666655E-005     1.3233643389832986E-027
   4.7866666666666660E-005     2.0819214106048578E-027
   4.8066666666666665E-005     2.7421939438219614E-027
   4.8266666666666656E-005     2.8342584025815267E-027
   4.8466666666666661E-005     2.1646171831499513E-027
   4.8666666666666666E-005     7.0869898240725130E-028
   4.8866666666666657E-005    -1.3369268339481707E-027
   4.9066666666666662E-005    -3.5791216308160066E-027
   4.9266666666666667E-005    -5.2316091972571093E-027
   4.9466666666666658E-005    -6.0978193009046013E-027
   4.9666666666666663E-005    -6.1777530973164491E-027
   4.9866666666666655E-005    -4.8817020079149586E-027
   5.0066666666666659E-005    -3.0450855239547253E-027
   5.0266666666666664E-005    -8.1533050119068110E-028
   5.0466666666666656E-005     2.0041323297790796E-027
   5.0666666666666660E-005     7.9687023156213612E-027
   5.0866666666666665E-005     1.9437210689159029E-026
   5.1066666666666657E-005     3.4050826602755207E-026
   5.1266666666666661E-005     5.2595827904389495E-026
   5.1466666666666666E-005     6.6423172903353873E-026
   5.1666666666666658E-005     7.1208329198714666E-026
   5.1866666666666662E-005     5.9973088689669202E-026
   5.2066666666666667E-005     2.5542684406034603E-026
   5.2266666666666659E-005    -3.6407409890146984E-026
   5.2466666666666664E-005    -1.1565559989369625E-025
   5.2666666666666655E-005    -2.0119400651810650E-025
   5.2866666666666660E-005    -2.8358731099506208E-025
   5.3066666666666665E-005    -3.2823932807280345E-025
   5.3266666666666656E-005    -3.0684406446852876E-025
   5.3466666666666661E-005    -2.2726429403980214E-025
   5.3666666666666666E-005    -8.7141224072399611E-026
   5.3866666666666657E-005     1.2531930622002502E-025
   5.4066666666666662E-005     3.7866625071102181E-025
   5.4266666666666667E-005     6.3201317055011532E-025
   5.4466666666666658E-005     8.2874817777931498E-025
   5.4666666666666663E-005     9.2483971907473904E-025
   5.4866666666666668E-005     8.1964432850261189E-025
   5.5066666666666659E-005     5.3832297115399060E-025
   5.5266666666666664E-005     8.7165789694026259E-026
   5.5466666666666655E-005    -4.2689355797454783E-025
   5.5666666666666660E-005    -9.0950179788691375E-025
   5.5866666666666665E-005    -1.2914665718655041E-024
   5.6066666666666656E-005    -1.4973053297637937E-024
   5.6266666666666661E-005    -1.5018571557945321E-024
   5.6466666666666666E-005    -1.3554438815322202E-024
   5.6666666666666657E-005    -9.5742194243546933E-025
   5.6866666666666662E-005    -3.0779136315618275E-025
   5.7066666666666667E-005     2.1603493300969090E-025
   5.7266666666666658E-005     6.0147646351662310E-025
   5.7466666666666663E-005     9.3659631036047408E-025
   5.7666666666666654E-005     1.5233247234311509E-024
   5.7866666666666659E-005     2.4119834356955414E-024
   5.8066666666666664E-005     3.3006421479599319E-024
   5.8266666666666655E-005     3.9880141255719975E-024
   5.8466666666666660E-005     4.2728122394489606E-024
   5.8666666666666665E-005     3.5511760884186204E-024
   5.8866666666666656E-005     1.2192446796630968E-024
   5.9066666666666661E-005    -3.2261991192712617E-024
   5.9266666666666666E-005    -8.9296861437702022E-024
   5.9466666666666657E-005    -1.4733815450911560E-023
   5.9666666666666662E-005    -1.9330225533430327E-023
   5.9866666666666667E-005    -2.1913765508412677E-023
   6.0066666666666659E-005    -2.2887010028454616E-023
   6.0266666666666663E-005    -1.7419074306456728E-023
   6.0466666666666655E-005    -4.7048098260879016E-024
   6.0666666666666660E-005     1.1632618639035941E-023
   6.0866666666666664E-005     3.0788060994861880E-023
   6.1066666666666656E-005     4.7930636398595023E-023
   6.1266666666666661E-005     5.7424315491109366E-023
   6.1466666666666665E-005     5.5645926399040843E-023
   6.1666666666666657E-005     4.0180027517700647E-023
   6.1866666666666662E-005     1.3442062029499395E-023
   6.2066666666666666E-005    -1.8126789823523086E-023
   6.2266666666666658E-005    -3.0372097794982461E-023
   6.2466666666666663E-005    -2.4904155762097331E-023
   6.2666666666666668E-005    -1.1267536967543278E-025
   6.2866666666666659E-005     4.7222939814190390E-023
   6.3066666666666664E-005     1.0261002832845374E-022
   6.3266666666666655E-005     1.4189415282698212E-022
   6.3466666666666660E-005     1.3931061442972158E-022
   6.3666666666666665E-005     7.2315264145731900E-023
   6.3866666666666656E-005    -5.2650709894338046E-023
   6.4066666666666661E-005    -1.9694021046103118E-022
   6.4266666666666666E-005    -3.7343564537008148E-022
   6.4466666666666657E-005    -4.9840161309926418E-022
   6.4666666666666662E-005    -5.2030867171226067E-022
   6.4866666666666667E-005    -4.0373037799836710E-022
   6.5066666666666658E-005    -1.5188727869125361E-022
   6.5266666666666663E-005     2.0301469186672264E-022
   6.5466666666666654E-005     5.9656372809971976E-022
   6.5666666666666659E-005     8.6128909007216066E-022
   6.5866666666666664E-005     9.4566141157837362E-022
   6.6066666666666655E-005     8.4968069261835863E-022
   6.6266666666666660E-005     5.4758225640016707E-022
   6.6466666666666665E-005     1.3601325157654465E-023
   6.6666666666666656E-005    -5.7190906064295125E-022
   6.6866666666666661E-005    -9.6418401709425678E-022
   6.7066666666666666E-005    -9.1201751633443063E-022
   6.7266666666666657E-005    -4.7338015687600411E-022
   6.7466666666666662E-005     2.7443387944388313E-022
   6.7666666666666667E-005     1.1253068248799566E-021
   6.7866666666666658E-005     1.5639440833641872E-021
   6.8066666666666663E-005     1.5903458063578689E-021
   6.8266666666666655E-005     1.5136887212095602E-021
   6.8466666666666659E-005     1.4370316360612515E-021
   6.8666666666666664E-005     1.4634334600291290E-021
   6.8866666666666656E-005     1.5928941931131928E-021
   6.9066666666666660E-005     2.0057667748054748E-021
   6.9266666666666665E-005     2.8308749929625017E-021
   6.9466666666666657E-005     4.6865718983846073E-021
   6.9666666666666661E-005     7.7789753093041640E-021
   6.9866666666666666E-005     1.0871379528017288E-020
   7.0066666666666658E-005     1.3139312473800922E-020
   7.0266666666666662E-005     1.0872654226265929E-020
   7.0466666666666654E-005     4.0714047854123098E-021
   7.0666666666666659E-005    -7.2644366565535030E-021
   7.0866666666666664E-005    -2.1485927553772530E-020
   7.1066666666666655E-005    -3.6377299845633829E-020
   7.1266666666666660E-005    -4.7970788661364303E-020
   7.1466666666666665E-005    -5.3792980182175483E-020
   7.1666666666666656E-005    -5.2194935093382657E-020
   7.1866666666666661E-005    -3.7405346406543728E-020
   7.2066666666666666E-005    -9.4242205840072302E-021
   7.2266666666666657E-005     3.1748439143052567E-020
   7.2466666666666662E-005     7.9516872284722550E-020
   7.2666666666666667E-005     1.3058319051811049E-019
   7.2866666666666658E-005     1.6928243481079469E-019
   7.3066666666666663E-005     1.8788519687453236E-019
   7.3266666666666654E-005     1.8092934463069445E-019
   7.3466666666666659E-005     1.3439888421093811E-019
   7.3666666666666664E-005     6.4783241073853126E-020
   7.3866666666666655E-005    -1.8023947276865096E-020
   7.4066666666666660E-005    -9.4235368675321668E-020
   7.4266666666666665E-005    -1.5065949729492896E-019
   7.4466666666666656E-005    -1.7410476853500813E-019
   7.4666666666666661E-005    -1.3159233794072812E-019
   7.4866666666666666E-005    -2.9717995082570449E-020
   7.5066666666666657E-005     1.1008202309916948E-019
   7.5266666666666662E-005     2.4658414326449437E-019
   7.5466666666666653E-005     3.6989474891234157E-019