  -3.3333333333333335E-005     0.0000000000000000     
  -3.3133333333333337E-005     0.0000000000000000     
  -3.2933333333333332E-005     0.0000000000000000     
  -3.2733333333333334E-005     0.0000000000000000     
  -3.2533333333333336E-005     0.0000000000000000     
  -3.2333333333333338E-005     0.0000000000000000     
  -3.2133333333333333E-005     0.0000000000000000     
  -3.1933333333333335E-005     0.0000000000000000     
  -3.1733333333333337E-005     0.0000000000000000     
  -3.1533333333333332E-005     0.0000000000000000     
  -3.1333333333333334E-005     0.0000000000000000     
  -3.1133333333333336E-005     0.0000000000000000     
  -3.0933333333333338E-005     0.0000000000000000     
  -3.0733333333333333E-005     0.0000000000000000     
  -3.0533333333333335E-005     0.0000000000000000     
  -3.0333333333333337E-005     0.0000000000000000     
  -3.0133333333333335E-005     0.0000000000000000     
  -2.9933333333333334E-005     0.0000000000000000     
  -2.9733333333333336E-005     0.0000000000000000     
  -2.9533333333333334E-005     0.0000000000000000     
  -2.9333333333333336E-005     0.0000000000000000     
  -2.9133333333333334E-005     0.0000000000000000     
  -2.8933333333333336E-005     0.0000000000000000     
  -2.8733333333333335E-005     0.0000000000000000     
  -2.8533333333333333E-005     0.0000000000000000     
  -2.8333333333333335E-005     0.0000000000000000     
  -2.8133333333333337E-005     0.0000000000000000     
  -2.7933333333333336E-005     0.0000000000000000     
  -2.7733333333333334E-005     0.0000000000000000     
  -2.7533333333333336E-005     0.0000000000000000     
  -2.7333333333333335E-005     0.0000000000000000     
  -2.7133333333333333E-005     0.0000000000000000     
  -2.6933333333333335E-005     0.0000000000000000     
  -2.6733333333333337E-005     0.0000000000000000     
  -2.6533333333333336E-005     0.0000000000000000     
  -2.6333333333333334E-005     0.0000000000000000     
  -2.6133333333333336E-005     0.0000000000000000     
  -2.5933333333333335E-005     0.0000000000000000     
  -2.5733333333333333E-005     0.0000000000000000     
  -2.5533333333333335E-005     0.0000000000000000     
  -2.5333333333333337E-005     0.0000000000000000     
  -2.5133333333333336E-005     0.0000000000000000     
  -2.4933333333333334E-005     0.0000000000000000     
  -2.4733333333333336E-005     0.0000000000000000     
  -2.4533333333333334E-005     0.0000000000000000     
  -2.4333333333333333E-005     0.0000000000000000     
  -2.4133333333333335E-005     0.0000000000000000     
  -2.3933333333333337E-005     0.0000000000000000     
  -2.3733333333333335E-005     0.0000000000000000     
  -2.3533333333333334E-005     0.0000000000000000     
  -2.3333333333333336E-005     0.0000000000000000     
  -2.3133333333333338E-005     0.0000000000000000     
  -2.2933333333333336E-005     0.0000000000000000     
  -2.2733333333333335E-005     0.0000000000000000     
  -2.2533333333333337E-005     0.0000000000000000     
  -2.2333333333333335E-005     0.0000000000000000     
  -2.2133333333333334E-005     0.0000000000000000     
  -2.1933333333333336E-005     0.0000000000000000     
  -2.1733333333333338E-005     0.0000000000000000     
  -2.1533333333333336E-005     0.0000000000000000     
  -2.1333333333333335E-005     0.0000000000000000     
  -2.1133333333333337E-005     0.0000000000000000     
  -2.0933333333333335E-005     0.0000000000000000     
  -2.0733333333333334E-005     0.0000000000000000     
  -2.0533333333333336E-005     0.0000000000000000     
  -2.0333333333333337E-005     0.0000000000000000     
  -2.0133333333333336E-005     0.0000000000000000     
  -1.9933333333333334E-005     0.0000000000000000     
  -1.9733333333333336E-005     0.0000000000000000     
  -1.9533333333333335E-005     0.0000000000000000     
  -1.9333333333333333E-005     0.0000000000000000     
  -1.9133333333333335E-005     0.0000000000000000     
  -1.8933333333333337E-005     0.0000000000000000     
  -1.8733333333333336E-005     0.0000000000000000     
  -1.8533333333333334E-005     0.0000000000000000     
  -1.8333333333333336E-005     0.0000000000000000     
  -1.8133333333333335E-005     0.0000000000000000     
  -1.7933333333333337E-005     0.0000000000000000     
  -1.7733333333333335E-005     0.0000000000000000     
  -1.7533333333333337E-005     0.0000000000000000     
  -1.7333333333333336E-005     0.0000000000000000     
  -1.7133333333333334E-005     0.0000000000000000     
  -1.6933333333333336E-005     0.0000000000000000     
  -1.6733333333333335E-005     0.0000000000000000     
  -1.6533333333333337E-005     0.0000000000000000     
  -1.6333333333333335E-005     0.0000000000000000     
  -1.6133333333333337E-005     0.0000000000000000     
  -1.5933333333333336E-005     0.0000000000000000     
  -1.5733333333333334E-005     0.0000000000000000     
  -1.5533333333333336E-005     0.0000000000000000     
  -1.5333333333333334E-005     0.0000000000000000     
  -1.5133333333333336E-005     0.0000000000000000     
  -1.4933333333333335E-005     0.0000000000000000     
  -1.4733333333333337E-005     0.0000000000000000     
  -1.4533333333333335E-005     0.0000000000000000     
  -1.4333333333333337E-005     0.0000000000000000     
  -1.4133333333333336E-005     0.0000000000000000     
  -1.3933333333333334E-005     0.0000000000000000     
  -1.3733333333333336E-005     0.0000000000000000     
  -1.3533333333333335E-005     0.0000000000000000     
  -1.3333333333333337E-005     0.0000000000000000     
  -1.3133333333333335E-005     0.0000000000000000     
  -1.2933333333333337E-005     0.0000000000000000     
  -1.2733333333333336E-005     0.0000000000000000     
  -1.2533333333333338E-005     0.0000000000000000     
  -1.2333333333333336E-005     0.0000000000000000     
  -1.2133333333333335E-005     0.0000000000000000     
  -1.1933333333333337E-005     0.0000000000000000     
  -1.1733333333333335E-005     0.0000000000000000     
  -1.1533333333333337E-005     0.0000000000000000     
  -1.1333333333333336E-005     0.0000000000000000     
  -1.1133333333333337E-005     0.0000000000000000     
  -1.0933333333333336E-005     0.0000000000000000     
  -1.0733333333333334E-005     0.0000000000000000     
  -1.0533333333333336E-005     0.0000000000000000     
  -1.0333333333333335E-005     0.0000000000000000     
  -1.0133333333333337E-005     0.0000000000000000     
  -9.9333333333333354E-006     0.0000000000000000     
  -9.7333333333333373E-006     0.0000000000000000     
  -9.5333333333333358E-006     0.0000000000000000     
  -9.3333333333333343E-006     0.0000000000000000     
  -9.1333333333333362E-006     0.0000000000000000     
  -8.9333333333333348E-006     0.0000000000000000     
  -8.7333333333333367E-006     0.0000000000000000     
  -8.5333333333333352E-006     0.0000000000000000     
  -8.3333333333333371E-006     0.0000000000000000     
  -8.1333333333333356E-006     0.0000000000000000     
  -7.9333333333333376E-006     0.0000000000000000     
  -7.7333333333333361E-006     0.0000000000000000     
  -7.5333333333333346E-006     0.0000000000000000     
  -7.3333333333333365E-006     0.0000000000000000     
  -7.1333333333333351E-006     0.0000000000000000     
  -6.9333333333333370E-006     0.0000000000000000     
  -6.7333333333333355E-006     0.0000000000000000     
  -6.5333333333333374E-006     0.0000000000000000     
  -6.3333333333333359E-006     0.0000000000000000     
  -6.1333333333333379E-006     0.0000000000000000     
  -5.9333333333333364E-006     0.0000000000000000     
  -5.7333333333333349E-006     0.0000000000000000     
  -5.5333333333333368E-006     0.0000000000000000     
  -5.3333333333333354E-006     0.0000000000000000     
  -5.1333333333333373E-006     0.0000000000000000     
  -4.9333333333333358E-006     0.0000000000000000     
  -4.7333333333333377E-006     0.0000000000000000     
  -4.5333333333333362E-006     0.0000000000000000     
  -4.3333333333333348E-006     0.0000000000000000     
  -4.1333333333333367E-006     0.0000000000000000     
  -3.9333333333333352E-006     0.0000000000000000     
  -3.7333333333333371E-006     0.0000000000000000     
  -3.5333333333333356E-006     0.0000000000000000     
  -3.3333333333333376E-006     0.0000000000000000     
  -3.1333333333333361E-006     0.0000000000000000     
  -2.9333333333333346E-006     0.0000000000000000     
  -2.7333333333333365E-006     0.0000000000000000     
  -2.5333333333333384E-006     0.0000000000000000     
  -2.3333333333333336E-006     0.0000000000000000     
  -2.1333333333333355E-006     0.0000000000000000     
  -1.9333333333333374E-006     0.0000000000000000     
  -1.7333333333333393E-006     0.0000000000000000     
  -1.5333333333333345E-006     0.0000000000000000     
  -1.3333333333333364E-006     0.0000000000000000     
  -1.1333333333333383E-006     0.0000000000000000     
  -9.3333333333333343E-007     0.0000000000000000     
  -7.3333333333333535E-007     0.0000000000000000     
  -5.3333333333333726E-007     0.0000000000000000     
  -3.3333333333333918E-007     0.0000000000000000     
  -1.3333333333333432E-007    -2.1338831483593418E-038
   6.6666666666663770E-008    -5.7273276683335050E-038
   2.6666666666666185E-007    -1.0139311399105106E-037
   4.6666666666666672E-007    -1.4056299339299837E-037
   6.6666666666666480E-007    -1.3905228154457907E-037
   8.6666666666666289E-007    -8.2556389197312852E-038
   1.0666666666666610E-006     3.4004180387208090E-038
   1.2666666666666658E-006     2.2966266169156809E-037
   1.4666666666666639E-006     4.8081518821651299E-037
   1.6666666666666620E-006     7.6031593783319809E-037
   1.8666666666666669E-006     1.0325417287632699E-036
   2.0666666666666649E-006     1.2231808290333416E-036
   2.2666666666666630E-006     1.2678990656268752E-036
   2.4666666666666611E-006     1.0846489561072496E-036
   2.6666666666666660E-006     5.9239805138307468E-037
   2.8666666666666641E-006    -2.7860941168949736E-037
   3.0666666666666622E-006    -1.5705227645176489E-036
   3.2666666666666602E-006    -3.2742715702976212E-036
   3.4666666666666651E-006    -5.3081645006104861E-036
   3.6666666666666632E-006    -7.4874068338757497E-036
   3.8666666666666613E-006    -9.4987907405873281E-036
   4.0666666666666661E-006    -1.0885279296227042E-035
   4.2666666666666642E-006    -1.1051647189630194E-035
   4.4666666666666623E-006    -9.3008852463668571E-036
   4.6666666666666604E-006    -4.9113049373442712E-036
   4.8666666666666652E-006     2.7396065672292204E-036
   5.0666666666666633E-006     1.4004696489719912E-035
   5.2666666666666614E-006     2.8759826736294849E-035
   5.4666666666666663E-006     4.6179550989527254E-035
   5.6666666666666644E-006     6.4533204930516116E-035
   5.8666666666666624E-006     8.1043752032065898E-035
   6.0666666666666605E-006     9.1868000183912631E-035
   6.2666666666666654E-006     9.2258071453843698E-035
   6.4666666666666635E-006     7.6959133011980334E-035
   6.6666666666666616E-006     4.0881165175595560E-035
   6.8666666666666664E-006    -1.9948905385875287E-035
   7.0666666666666645E-006    -1.0719467294561571E-034
   7.2666666666666626E-006    -2.1887119361022986E-034
   7.4666666666666607E-006    -3.4802732675100845E-034
   7.6666666666666655E-006    -4.8166505506317105E-034
   7.8666666666666636E-006    -6.0017063541364873E-034
   8.0666666666666617E-006    -6.7755140814736444E-034
   8.2666666666666598E-006    -6.8276050116043801E-034
   8.4666666666666647E-006    -5.8233512595156102E-034
   8.6666666666666627E-006    -3.4447030839606906E-034
   8.8666666666666608E-006     5.5502515498071971E-035
   9.0666666666666657E-006     6.2845220297496754E-034
   9.2666666666666638E-006     1.3640383182354053E-033
   9.4666666666666619E-006     2.2232435061078938E-033
   9.6666666666666599E-006     3.1317946611309557E-033
   9.8666666666666648E-006     3.9756919738198610E-033
   1.0066666666666663E-005     4.6003235905659157E-033
   1.0266666666666661E-005     4.8148825336596769E-033
   1.0466666666666666E-005     4.4039344840580054E-033
   1.0666666666666664E-005     3.1479477902211771E-033
   1.0866666666666662E-005     8.5419124528875066E-034
   1.1066666666666660E-005    -2.6014814050170196E-033
   1.1266666666666665E-005    -7.2230770352290031E-033
   1.1466666666666663E-005    -1.2836696592670901E-032
   1.1666666666666661E-005    -1.9033347389125237E-032
   1.1866666666666666E-005    -2.5122938568210495E-032
   1.2066666666666664E-005    -3.0113755504647820E-032
   1.2266666666666662E-005    -3.2734364406804626E-032
   1.2466666666666660E-005    -3.1515329745227881E-032
   1.2666666666666665E-005    -2.4944765950720484E-032
   1.2866666666666663E-005    -1.1703718403149917E-032
   1.3066666666666661E-005     9.0260884740866294E-033
   1.3266666666666666E-005     3.7207625874254284E-032
   1.3466666666666664E-005     7.1593171930828453E-032
   1.3666666666666662E-005     1.0943395138853027E-031
   1.3866666666666660E-005     1.4633378876070112E-031
   1.4066666666666665E-005     1.7632787894043523E-031
   1.4266666666666663E-005     1.9225307673729630E-031
   1.4466666666666661E-005     1.8644286676993892E-031
   1.4666666666666666E-005     1.5172998961769890E-031
   1.4866666666666664E-005     8.2677613461342295E-032
   1.5066666666666662E-005    -2.3100556373602413E-032
   1.5266666666666661E-005    -1.6371756345794950E-031
   1.5466666666666665E-005    -3.3209067229233068E-031
   1.5666666666666663E-005    -5.1549884758135625E-031
   1.5866666666666662E-005    -6.9573466924604369E-031
   1.6066666666666660E-005    -8.4987000242416918E-031
   1.6266666666666665E-005    -9.5155270879854676E-031
   1.6466666666666663E-005    -9.7268038598339010E-031
   1.6666666666666661E-005    -8.8528999820314635E-031
   1.6866666666666666E-005    -6.6358814311546240E-031
   1.7066666666666664E-005    -2.8622064928397846E-031
   1.7266666666666662E-005     2.6089027416641423E-031
   1.7466666666666660E-005     9.8062343641076646E-031
   1.7666666666666665E-005     1.8590922759949612E-030
   1.7866666666666663E-005     2.8581212267927108E-030
   1.8066666666666661E-005     3.9060853491383558E-030
   1.8266666666666666E-005     4.8884709926403269E-030
   1.8466666666666664E-005     5.6408212314038946E-030
   1.8666666666666662E-005     5.9480687474771899E-030
   1.8866666666666660E-005     5.5550880085396661E-030
   1.9066666666666665E-005     4.1931922271233062E-030
   1.9266666666666663E-005     1.6256248039103489E-030
   1.9466666666666661E-005    -2.2883929691864517E-030
   1.9666666666666666E-005    -7.5167465865026310E-030
   1.9866666666666664E-005    -1.3776676430281223E-029
   2.0066666666666662E-005    -2.0474403252339954E-029
   2.0266666666666660E-005    -2.6684454519824455E-029
   2.0466666666666665E-005    -3.1191103506300744E-029
   2.0666666666666663E-005    -3.2608479611810378E-029
   2.0866666666666661E-005    -2.9583243901494598E-029
   2.1066666666666659E-005    -2.1064946035435997E-029
   2.1266666666666664E-005    -6.6069350238249472E-030
   2.1466666666666662E-005     1.3360248246587170E-029
   2.1666666666666660E-005     3.7354479560656467E-029
   2.1866666666666665E-005     6.2837256110211582E-029
   2.2066666666666663E-005     8.6429025241949171E-029
   2.2266666666666661E-005     1.0435433532837279E-028
   2.2466666666666659E-005     1.1306885536310907E-028
   2.2666666666666664E-005     1.0995676924009804E-028
   2.2866666666666662E-005     9.3933152473417758E-029
   2.3066666666666660E-005     6.5763050640820680E-029
   2.3266666666666665E-005     2.7933754117234307E-029
   2.3466666666666663E-005    -1.5997857453674099E-029
   2.3666666666666661E-005    -6.2519592021478136E-029
   2.3866666666666660E-005    -1.0949857846926616E-028
   2.4066666666666664E-005    -1.5732329492241431E-028
   2.4266666666666662E-005    -2.0933069788053404E-028
   2.4466666666666661E-005    -2.7101036176060952E-028
   2.4666666666666665E-005    -3.4766367354993397E-028
   2.4866666666666663E-005    -4.4057366370333386E-028
   2.5066666666666662E-005    -5.4227138330348104E-028
   2.5266666666666660E-005    -6.3207687068302593E-028
   2.5466666666666665E-005    -6.7358947211406643E-028
   2.5666666666666663E-005    -6.1600734456129632E-028
   2.5866666666666661E-005    -4.0088992534748347E-028
   2.6066666666666666E-005     2.4900384362169030E-029
   2.6266666666666664E-005     6.9082471548288502E-028
   2.6466666666666662E-005     1.5815333220984632E-027
   2.6666666666666660E-005     2.6176367357846502E-027
   2.6866666666666665E-005     3.6445747451619957E-027
   2.7066666666666663E-005     4.4362009005971587E-027
   2.7266666666666661E-005     4.7184790599421515E-027
   2.7466666666666666E-005     4.2154569733473157E-027
   2.7666666666666664E-005     2.7145892047430703E-027
   2.7866666666666662E-005     1.4214687066414567E-028
   2.8066666666666667E-005    -3.3668036470728578E-027
   2.8266666666666658E-005    -7.4238736825377227E-027
   2.8466666666666663E-005    -1.1389072237423450E-026
   2.8666666666666668E-005    -1.4435089911471259E-026
   2.8866666666666659E-005    -1.5679883145774861E-026
   2.9066666666666664E-005    -1.4377352072482485E-026
   2.9266666666666669E-005    -1.0136893446969112E-026
   2.9466666666666660E-005    -3.1245854083501027E-027
   2.9666666666666665E-005     5.8129388250187524E-027
   2.9866666666666656E-005     1.5160800344187791E-026
   3.0066666666666661E-005     2.2927122089393053E-026
   3.0266666666666666E-005     2.7022448797273226E-026
   3.0466666666666657E-005     2.5788479289257080E-026
   3.0666666666666662E-005     1.8582447542728997E-026
   3.0866666666666667E-005     6.2748604110423979E-027
   3.1066666666666658E-005    -8.5089688058527351E-027
   3.1266666666666663E-005    -2.1563403451395517E-026
   3.1466666666666668E-005    -2.7795409224873376E-026
   3.1666666666666659E-005    -2.2431759041001056E-026
   3.1866666666666664E-005    -2.5915490517229529E-027
   3.2066666666666656E-005     3.1082192023500900E-026
   3.2266666666666660E-005     7.3169178564109576E-026
   3.2466666666666665E-005     1.1309442737942815E-025
   3.2666666666666657E-005     1.3607085173465356E-025
   3.2866666666666661E-005     1.2561225711274983E-025
   3.3066666666666666E-005     6.7533611723993066E-026
   3.3266666666666658E-005    -4.5078609019679189E-026
   3.3466666666666662E-005    -2.0689888834729348E-025
   3.3666666666666667E-005    -3.9673387714994468E-025
   3.3866666666666659E-005    -5.7670983027056340E-025
   3.4066666666666664E-005    -6.9555645880754016E-025
   3.4266666666666668E-005    -6.9666175154336795E-025
   3.4466666666666660E-005    -5.3057354674774541E-025
   3.4666666666666665E-005    -1.7034915069351233E-025
   3.4866666666666656E-005     3.7315536703476098E-025
   3.5066666666666661E-005     1.0399909287012080E-024
   3.5266666666666666E-005     1.7181213022009962E-024
   3.5466666666666657E-005     2.2524365148298181E-024
   3.5666666666666662E-005     2.4677178391559900E-024
   3.5866666666666667E-005     2.2046479128372081E-024
   3.6066666666666658E-005     1.3643361188710977E-024
   3.6266666666666663E-005    -4.6863687233141631E-026
   3.6466666666666668E-005    -1.8833612350044733E-024
   3.6666666666666659E-005    -3.8493386893213854E-024
   3.6866666666666664E-005    -5.5212970346402058E-024
   3.7066666666666669E-005    -6.4098447147321864E-024
   3.7266666666666660E-005    -6.0585322159097032E-024
   3.7466666666666665E-005    -4.1675636007657311E-024
   3.7666666666666656E-005    -7.1993270451312861E-025
   3.7866666666666661E-005     3.9205996503336202E-024
   3.8066666666666666E-005     8.9734726571753997E-024
   3.8266666666666657E-005     1.3296960532314853E-023
   3.8466666666666662E-005     1.5552411679093973E-023
   3.8666666666666667E-005     1.4472864996629881E-023
   3.8866666666666658E-005     9.2046806887475312E-024
   3.9066666666666663E-005    -3.3754963703954485E-025
   3.9266666666666668E-005    -1.3185634903648253E-023
   3.9466666666666659E-005    -2.7195320219777617E-023
   3.9666666666666664E-005    -3.9171427829608512E-023
   3.9866666666666655E-005    -4.5293307153929273E-023
   4.0066666666666660E-005    -4.1838260472129528E-023
   4.0266666666666665E-005    -2.6128280138104899E-023
   4.0466666666666656E-005     2.4525740763584623E-024
   4.0666666666666661E-005     4.1589608359360244E-023
   4.0866666666666666E-005     8.5573636758006962E-023
   4.1066666666666657E-005     1.2548559356289541E-022
   4.1266666666666662E-005     1.5020037853152900E-022
   4.1466666666666667E-005     1.4824493749789267E-022
   4.1666666666666658E-005     1.1035857354922005E-022
   4.1866666666666663E-005     3.2393588574491134E-023
   4.2066666666666668E-005    -8.1998948275877777E-023
   4.2266666666666660E-005    -2.1957924364165138E-022
   4.2466666666666664E-005    -3.5731632669005948E-022
   4.2666666666666656E-005    -4.6432317540340201E-022
   4.2866666666666661E-005    -5.0617026480678277E-022
   4.3066666666666665E-005    -4.5136490441213475E-022
   4.3266666666666657E-005    -2.7923790351715978E-022
   4.3466666666666662E-005     1.2057177267338648E-023
   4.3666666666666666E-005     3.9914352417685418E-022
   4.3866666666666658E-005     8.3049079912907988E-022
   4.4066666666666663E-005     1.2286325078216268E-021
   4.4266666666666667E-005     1.4985964110757146E-021
   4.4466666666666659E-005     1.5425983403060226E-021
   4.4666666666666664E-005     1.2797374668602896E-021
   4.4866666666666655E-005     6.6801963241885286E-022
   4.5066666666666660E-005    -2.7520895737136812E-022
   4.5266666666666665E-005    -1.4591043933296679E-021
   4.5466666666666656E-005    -2.7161372064037974E-021
   4.5666666666666661E-005    -3.8136124127023815E-021
   4.5866666666666666E-005    -4.4816564808766345E-021
   4.6066666666666657E-005    -4.4565882231135895E-021
   4.6266666666666662E-005    -3.5352015130929320E-021
   4.6466666666666667E-005    -1.6321616442476284E-021
   4.6666666666666658E-005     1.1699474158991315E-021
   4.6866666666666663E-005     4.5896358625574824E-021
   4.7066666666666668E-005     8.1455536455715362E-021
   4.7266666666666659E-005     1.1193529218102612E-020
   4.7466666666666664E-005     1.3004276046595207E-020
   4.7666666666666655E-005     1.2877408027938453E-020
   4.7866666666666660E-005     1.0279598846601653E-020
   4.8066666666666665E-005     4.9873340420946779E-021
   4.8266666666666656E-005    -2.7906006271468675E-021
   4.8466666666666661E-005    -1.2337809195360416E-020
   4.8666666666666666E-005    -2.2426633858637059E-020
   4.8866666666666657E-005    -3.1403365887124440E-020
   4.9066666666666662E-005    -3.7367822779771937E-020
   4.9266666666666667E-005    -3.8437767977412207E-020
   4.9466666666666658E-005    -3.3072458035717328E-020
   4.9666666666666663E-005    -2.0414775512543242E-020
   4.9866666666666655E-005    -6.0043901676294885E-022
   5.0066666666666659E-005     2.5021601222205342E-020
   5.0266666666666664E-005     5.3809921228861481E-020
   5.0466666666666656E-005     8.1932918219973626E-020
   5.0666666666666660E-005     1.0467330233118690E-019
   5.0866666666666665E-005     1.1693025139049599E-019
   5.1066666666666657E-005     1.1388700221812512E-019
   5.1266666666666661E-005     9.1784762100102362E-020
   5.1466666666666666E-005     4.8721687711803456E-020
   5.1666666666666658E-005    -1.4619942344257400E-020
   5.1866666666666662E-005    -9.4421910828149447E-020
   5.2066666666666667E-005    -1.8345480458900128E-019
   5.2266666666666659E-005    -2.7116994147291931E-019
   5.2466666666666664E-005    -3.4423038473332991E-019
   5.2666666666666655E-005    -3.8752726689164576E-019
   5.2866666666666660E-005    -3.8569392446149854E-019
   5.3066666666666665E-005    -3.2508702136519762E-019
   5.3266666666666656E-005    -1.9614811080847769E-019
   5.3466666666666661E-005     4.0115190093267446E-021
   5.3666666666666666E-005     2.6904532806957686E-019
   5.3866666666666657E-005     5.8116520765845179E-019
   5.4066666666666662E-005     9.0973023915609933E-019
   5.4266666666666667E-005     1.2111443078176126E-018
   5.4466666666666658E-005     1.4306056640855877E-018
   5.4666666666666663E-005     1.5062007696886198E-018
   5.4866666666666668E-005     1.3756728064010943E-018
   5.5066666666666659E-005     9.8588503584110010E-019
   5.5266666666666664E-005     3.0455270209826913E-019
   5.5466666666666655E-005    -6.6677219720309601E-019
   5.5666666666666660E-005    -1.8801287995689816E-018
   5.5866666666666665E-005    -3.2312884187097967E-018
   5.6066666666666656E-005    -4.5553820678224172E-018
   5.6266666666666661E-005    -5.6309443388098053E-018
   5.6466666666666666E-005    -6.1949925946551207E-018
   5.6666666666666657E-005    -5.9708216855695749E-018
   5.6866666666666662E-005    -4.7086168627075593E-018
   5.7066666666666667E-005    -2.2367431120479961E-018
   5.7266666666666658E-005     1.4811041099037609E-018
   5.7466666666666663E-005     6.2905240971891761E-018
   5.7666666666666654E-005     1.1802940071665033E-017
   5.7866666666666659E-005     1.7375742712399098E-017
   5.8066666666666664E-005     2.2127867207375416E-017
   5.8266666666666655E-005     2.5000677055300657E-017
   5.8466666666666660E-005     2.4869729401249837E-017
   5.8666666666666665E-005     2.0706249791223406E-017
   5.8866666666666656E-005     1.1778376943375271E-017
   5.9066666666666661E-005    -2.1277932924122586E-018
   5.9266666666666666E-005    -2.0497242757127182E-017
   5.9466666666666657E-005    -4.1923141335632947E-017
   5.9666666666666662E-005    -6.4034433497894025E-017
   5.9866666666666667E-005    -8.3555101860757427E-017
   6.0066666666666659E-005    -9.6528033487777677E-017
   6.0266666666666663E-005    -9.8720088580822802E-017
   6.0466666666666655E-005    -8.6201279110094164E-017
   6.0666666666666660E-005    -5.6060941788474872E-017
   6.0866666666666664E-005    -7.1906000012234394E-018
   6.1066666666666656E-005     5.8968097829794540E-017
   6.1266666666666661E-005     1.3783769797647190E-016
   6.1466666666666665E-005     2.2142118867585214E-016
   6.1666666666666657E-005     2.9845520886882533E-016
   6.1866666666666662E-005     3.5510792228496554E-016
   6.2066666666666666E-005     3.7627869023841912E-016
   6.2266666666666658E-005     3.4748195231193706E-016
   6.2466666666666663E-005     2.5720629252431700E-016
   6.2666666666666668E-005     9.9537766542498820E-017
   6.2866666666666659E-005    -1.2326257705994054E-016
   6.3066666666666664E-005    -3.9861751662613638E-016
   6.3266666666666655E-005    -7.0236644318728467E-016
   6.3466666666666660E-005    -9.9880695772128604E-016
   6.3666666666666665E-005    -1.2424138451098596E-015
   6.3866666666666656E-005    -1.3814684912035195E-015
   6.4066666666666661E-005    -1.3636293420596335E-015
   6.4266666666666666E-005    -1.1432087110527255E-015
   6.4466666666666657E-005    -6.8962145606730444E-016
   6.4666666666666662E-005     3.8398650476997604E-018
   6.4866666666666667E-005     9.1202239716533379E-016
   6.5066666666666658E-005     1.9720468612044115E-015
   6.5266666666666663E-005     3.0809540201460085E-015
   6.5466666666666654E-005     4.0981762152944318E-015
   6.5666666666666659E-005     4.8538566591873559E-015
   6.5866666666666664E-005     5.1635505394283677E-015
   6.6066666666666655E-005     4.8491352975393604E-015
   6.6266666666666660E-005     3.7648983967030186E-015
   6.6466666666666665E-005     1.8267968043762968E-015
   6.6666666666666656E-005    -9.5808277828760176E-016
   6.6866666666666661E-005    -4.4656944937456530E-015
   6.7066666666666666E-005    -8.4372731647434571E-015
   6.7266666666666657E-005    -1.2474278778169551E-014
   6.7466666666666662E-005    -1.6050349390490590E-014
   6.7666666666666667E-005    -1.8543601035128990E-014
   6.7866666666666658E-005    -1.9290906017239463E-014
   6.8066666666666663E-005    -1.7663481286889042E-014
   6.8266666666666655E-005    -1.3160106108968308E-014
   6.8466666666666659E-005    -5.5110199715345531E-015
   6.8666666666666664E-005     5.2178779621158376E-015
   6.8866666666666656E-005     1.8533921142607768E-014
   6.9066666666666660E-005     3.3455321304075303E-014
   6.9266666666666665E-005     4.8494042305001137E-014
   6.9466666666666657E-005     6.1699445194889763E-014
   6.9666666666666661E-005     7.0774949215059862E-014
   6.9866666666666666E-005     7.3274252063073447E-014
   7.0066666666666658E-005     6.6875141763265283E-014
   7.0266666666666662E-005     4.9718557179265210E-014
   7.0466666666666654E-005     2.0788417916337704E-014
   7.0666666666666659E-005    -1.9704662977248349E-014
   7.0866666666666664E-005    -6.9984254123193340E-014
   7.1066666666666655E-005    -1.2647031317168655E-013
   7.1266666666666660E-005    -1.8370329942559577E-013
   7.1466666666666665E-005    -2.3448796615359313E-013
   7.1666666666666656E-005    -2.7030287730323010E-013
   7.1866666666666661E-005    -2.8200166268983751E-013
   7.2066666666666666E-005    -2.6080179682530513E-013
   7.2266666666666657E-005    -1.9951878690860347E-013
   7.2466666666666662E-005    -9.3959975704886040E-014
   7.2666666666666667E-005     5.5653432437605815E-014
   7.2866666666666658E-005     2.4340880873385817E-013
   7.3066666666666663E-005     4.5677388737716540E-013
   7.3266666666666654E-005     6.7623711534972597E-013
   7.3466666666666659E-005     8.7572668300978096E-013
   7.3666666666666664E-005     1.0239813554371868E-012
   7.3866666666666655E-005     1.0869739353394636E-012
   7.4066666666666660E-005     1.0313851552326558E-012
   7.4266666666666665E-005     8.2899485887022450E-013
   7.4466666666666656E-005     4.6170174888143789E-013
   7.4666666666666661E-005    -7.3274055551429684E-014
   7.4866666666666666E-005    -7.5860108125769266E-013
   7.5066666666666657E-005    -1.5531705695875919E-012
   7.5266666666666662E-005    -2.3903262182101148E-012
   7.5466666666666653E-005    -3.1787409076472484E-012