  -3.3333333333333335E-005     0.0000000000000000     
  -3.3133333333333337E-005     0.0000000000000000     
  -3.2933333333333332E-005     0.0000000000000000     
  -3.2733333333333334E-005     0.0000000000000000     
  -3.2533333333333336E-005     0.0000000000000000     
  -3.2333333333333338E-005     0.0000000000000000     
  -3.2133333333333333E-005     0.0000000000000000     
  -3.1933333333333335E-005     0.0000000000000000     
  -3.1733333333333337E-005     0.0000000000000000     
  -3.1533333333333332E-005     0.0000000000000000     
  -3.1333333333333334E-005     0.0000000000000000     
  -3.1133333333333336E-005     0.0000000000000000     
  -3.0933333333333338E-005     0.0000000000000000     
  -3.0733333333333333E-005     0.0000000000000000     
  -3.0533333333333335E-005     0.0000000000000000     
  -3.0333333333333337E-005     0.0000000000000000     
  -3.0133333333333335E-005     0.0000000000000000     
  -2.9933333333333334E-005     0.0000000000000000     
  -2.9733333333333336E-005     0.0000000000000000     
  -2.9533333333333334E-005     0.0000000000000000     
  -2.9333333333333336E-005     0.0000000000000000     
  -2.9133333333333334E-005     0.0000000000000000     
  -2.8933333333333336E-005     0.0000000000000000     
  -2.8733333333333335E-005     0.0000000000000000     
  -2.8533333333333333E-005     0.0000000000000000     
  -2.8333333333333335E-005     0.0000000000000000     
  -2.8133333333333337E-005     0.0000000000000000     
  -2.7933333333333336E-005     0.0000000000000000     
  -2.7733333333333334E-005     0.0000000000000000     
  -2.7533333333333336E-005     0.0000000000000000     
  -2.7333333333333335E-005     0.0000000000000000     
  -2.7133333333333333E-005     0.0000000000000000     
  -2.6933333333333335E-005     0.0000000000000000     
  -2.6733333333333337E-005     0.0000000000000000     
  -2.6533333333333336E-005     0.0000000000000000     
  -2.6333333333333334E-005     0.0000000000000000     
  -2.6133333333333336E-005     0.0000000000000000     
  -2.5933333333333335E-005     0.0000000000000000     
  -2.5733333333333333E-005     0.0000000000000000     
  -2.5533333333333335E-005     0.0000000000000000     
  -2.5333333333333337E-005     0.0000000000000000     
  -2.5133333333333336E-005     0.0000000000000000     
  -2.4933333333333334E-005     0.0000000000000000     
  -2.4733333333333336E-005     0.0000000000000000     
  -2.4533333333333334E-005     0.0000000000000000     
  -2.4333333333333333E-005     0.0000000000000000     
  -2.4133333333333335E-005     0.0000000000000000     
  -2.3933333333333337E-005     0.0000000000000000     
  -2.3733333333333335E-005     0.0000000000000000     
  -2.3533333333333334E-005     0.0000000000000000     
  -2.3333333333333336E-005     0.0000000000000000     
  -2.3133333333333338E-005     0.0000000000000000     
  -2.2933333333333336E-005     0.0000000000000000     
  -2.2733333333333335E-005     0.0000000000000000     
  -2.2533333333333337E-005     0.0000000000000000     
  -2.2333333333333335E-005     0.0000000000000000     
  -2.2133333333333334E-005     0.0000000000000000     
  -2.1933333333333336E-005     0.0000000000000000     
  -2.1733333333333338E-005     0.0000000000000000     
  -2.1533333333333336E-005     0.0000000000000000     
  -2.1333333333333335E-005     0.0000000000000000     
  -2.1133333333333337E-005     0.0000000000000000     
  -2.0933333333333335E-005     0.0000000000000000     
  -2.0733333333333334E-005     0.0000000000000000     
  -2.0533333333333336E-005     0.0000000000000000     
  -2.0333333333333337E-005     0.0000000000000000     
  -2.0133333333333336E-005     0.0000000000000000     
  -1.9933333333333334E-005     0.0000000000000000     
  -1.9733333333333336E-005     0.0000000000000000     
  -1.9533333333333335E-005     0.0000000000000000     
  -1.9333333333333333E-005     0.0000000000000000     
  -1.9133333333333335E-005     0.0000000000000000     
  -1.8933333333333337E-005     0.0000000000000000     
  -1.8733333333333336E-005     0.0000000000000000     
  -1.8533333333333334E-005     0.0000000000000000     
  -1.8333333333333336E-005     0.0000000000000000     
  -1.8133333333333335E-005     0.0000000000000000     
  -1.7933333333333337E-005     0.0000000000000000     
  -1.7733333333333335E-005     0.0000000000000000     
  -1.7533333333333337E-005     0.0000000000000000     
  -1.7333333333333336E-005     0.0000000000000000     
  -1.7133333333333334E-005     0.0000000000000000     
  -1.6933333333333336E-005     0.0000000000000000     
  -1.6733333333333335E-005     0.0000000000000000     
  -1.6533333333333337E-005     0.0000000000000000     
  -1.6333333333333335E-005     0.0000000000000000     
  -1.6133333333333337E-005     0.0000000000000000     
  -1.5933333333333336E-005     0.0000000000000000     
  -1.5733333333333334E-005     0.0000000000000000     
  -1.5533333333333336E-005     0.0000000000000000     
  -1.5333333333333334E-005     0.0000000000000000     
  -1.5133333333333336E-005     0.0000000000000000     
  -1.4933333333333335E-005     0.0000000000000000     
  -1.4733333333333337E-005     0.0000000000000000     
  -1.4533333333333335E-005     0.0000000000000000     
  -1.4333333333333337E-005     0.0000000000000000     
  -1.4133333333333336E-005     0.0000000000000000     
  -1.3933333333333334E-005     0.0000000000000000     
  -1.3733333333333336E-005     0.0000000000000000     
  -1.3533333333333335E-005     0.0000000000000000     
  -1.3333333333333337E-005     0.0000000000000000     
  -1.3133333333333335E-005     0.0000000000000000     
  -1.2933333333333337E-005     0.0000000000000000     
  -1.2733333333333336E-005     0.0000000000000000     
  -1.2533333333333338E-005     1.0583966210378310E-040
  -1.2333333333333336E-005     2.6639052962908160E-040
  -1.2133333333333335E-005    -8.5834617760448922E-040
  -1.1933333333333337E-005    -3.0943632974316397E-039
  -1.1733333333333335E-005    -6.1896777533211320E-039
  -1.1533333333333337E-005    -6.7772917494808648E-039
  -1.1333333333333336E-005    -3.7061243977217318E-039
  -1.1133333333333337E-005     6.6504344450332396E-039
  -1.0933333333333336E-005     3.1653523492571442E-038
  -1.0733333333333334E-005     6.2599070240957680E-038
  -1.0533333333333336E-005     9.1961032107225723E-038
  -1.0333333333333335E-005     9.5791542359837912E-038
  -1.0133333333333337E-005     6.2124329381909209E-038
  -9.9333333333333354E-006    -3.3157018161011754E-038
  -9.7333333333333373E-006    -2.0181988577654249E-037
  -9.5333333333333358E-006    -4.4618142705340305E-037
  -9.3333333333333343E-006    -7.4211301427048012E-037
  -9.1333333333333362E-006    -1.0084119599760674E-036
  -8.9333333333333348E-006    -1.1109541197416573E-036
  -8.7333333333333367E-006    -8.5361590138398870E-037
  -8.5333333333333352E-006    -3.8607103554983284E-038
  -8.3333333333333371E-006     1.4750152638374750E-036
  -8.1333333333333356E-006     3.6773475333865688E-036
  -7.9333333333333376E-006     6.3084250590945885E-036
  -7.7333333333333361E-006     8.7992845327688625E-036
  -7.5333333333333346E-006     1.0287198570479581E-035
  -7.3333333333333365E-006     9.7341598027403241E-036
  -7.1333333333333351E-006     6.1352625690170136E-036
  -6.9333333333333370E-006    -1.2532821068860364E-036
  -6.7333333333333355E-006    -1.2790561510407291E-035
  -6.5333333333333374E-006    -2.8560460340720479E-035
  -6.3333333333333359E-006    -4.8745914383159012E-035
  -6.1333333333333379E-006    -7.4060962231517562E-035
  -5.9333333333333364E-006    -1.0566824537870803E-034
  -5.7333333333333349E-006    -1.4363762579717554E-034
  -5.5333333333333368E-006    -1.8287577867078449E-034
  -5.3333333333333354E-006    -2.0595530538798605E-034
  -5.1333333333333373E-006    -1.7378580026788390E-034
  -4.9333333333333358E-006    -1.7796292783188330E-035
  -4.7333333333333377E-006     3.5908063019363354E-034
  -4.5333333333333362E-006     1.0619805205180403E-033
  -4.3333333333333348E-006     2.1527146010002707E-033
  -4.1333333333333367E-006     3.5605526726011294E-033
  -3.9333333333333352E-006     4.9616161860277025E-033
  -3.7333333333333371E-006     5.6568464714705140E-033
  -3.5333333333333356E-006     4.5101157315619234E-033
  -3.3333333333333376E-006     3.9506615221507717E-035
  -3.1333333333333361E-006    -9.2295340617581506E-033
  -2.9333333333333346E-006    -2.4062651341217385E-032
  -2.7333333333333365E-006    -4.3463578411167357E-032
  -2.5333333333333384E-006    -6.3426726967214020E-032
  -2.3333333333333336E-006    -7.5881658576833932E-032
  -2.1333333333333355E-006    -6.8470034513561020E-032
  -1.9333333333333374E-006    -2.5982421310581512E-032
  -1.7333333333333393E-006     6.5735830325180308E-032
  -1.5333333333333345E-006     2.1298101917044710E-031
  -1.3333333333333364E-006     4.0493035631957141E-031
  -1.1333333333333383E-006     6.0373983921264997E-031
  -9.3333333333333343E-007     7.3751337035214253E-031
  -7.3333333333333535E-007     7.0122466464993311E-031
  -5.3333333333333726E-007     3.7138102066204700E-031
  -3.3333333333333918E-007    -3.6085591082509320E-031
  -1.3333333333333432E-007    -1.5370896174097557E-030
   6.6666666666663770E-008    -3.0654320132525532E-030
   2.6666666666666185E-007    -4.6557285755938699E-030
   4.6666666666666672E-007    -5.7815922772989594E-030
   6.6666666666666480E-007    -5.7021900485859140E-030
   8.6666666666666289E-007    -3.5772247577255363E-030
   1.0666666666666610E-006     1.3029754535819390E-030
   1.2666666666666658E-006     9.1775404608086041E-030
   1.4666666666666639E-006     1.9413533425531506E-029
   1.6666666666666620E-006     3.0144258469256165E-029
   1.8666666666666669E-006     3.8099496646733027E-029
   2.0666666666666649E-006     3.8808404557215589E-029
   2.2666666666666630E-006     2.7338798064843086E-029
   2.4666666666666611E-006    -3.4775604533654148E-031
   2.6666666666666660E-006    -4.5507560064669958E-029
   2.8666666666666641E-006    -1.0450480092739067E-028
   3.0666666666666622E-006    -1.6704920310912827E-028
   3.2666666666666602E-006    -2.1556397391294196E-028
   3.4666666666666651E-006    -2.2654102108818750E-028
   3.6666666666666632E-006    -1.7457194498765326E-028
   3.8666666666666613E-006    -3.9257023108905285E-029
   4.0666666666666661E-006     1.8562230469192846E-028
   4.2666666666666642E-006     4.8233800749462822E-028
   4.4666666666666623E-006     8.0160498004267067E-028
   4.6666666666666604E-006     1.0606385865374639E-027
   4.8666666666666652E-006     1.1504390537059712E-027
   5.0666666666666633E-006     9.5481580797742706E-028
   5.2666666666666614E-006     3.8130822935196728E-028
   5.4666666666666663E-006    -5.9940317679124862E-028
   5.6666666666666644E-006    -1.9132543652869503E-027
   5.8666666666666624E-006    -3.3533320746963981E-027
   6.0666666666666605E-006    -4.5750933836159933E-027
   6.2666666666666654E-006    -5.1293517377232179E-027
   6.4666666666666635E-006    -4.5409888897437063E-027
   6.6666666666666616E-006    -2.4315389783499665E-027
   6.8666666666666664E-006     1.3298624699093749E-027
   7.0666666666666645E-006     6.4777880983050647E-027
   7.2666666666666626E-006     1.2247438796890650E-026
   7.4666666666666607E-006     1.7366097651936120E-026
   7.6666666666666655E-006     2.0181899569384924E-026
   7.8666666666666636E-006     1.8951617237371034E-026
   8.0666666666666617E-006     1.2273371317912479E-026
   8.2666666666666598E-006    -3.9607845663537398E-028
   8.4666666666666647E-006    -1.8247522643407449E-026
   8.6666666666666627E-006    -3.8792866177135538E-026
   8.8666666666666608E-006    -5.7859562888192767E-026
   9.0666666666666657E-006    -7.0030050467119568E-026
   9.2666666666666638E-006    -6.9575519974793548E-026
   9.4666666666666619E-006    -5.1817720620127228E-026
   9.6666666666666599E-006    -1.4713172041634250E-026
   9.8666666666666648E-006     3.9678532659680453E-026
   1.0066666666666663E-005     1.0426806664108830E-025
   1.0266666666666661E-005     1.6697904529569114E-025
   1.0466666666666666E-005     2.1207563640450975E-025
   1.0666666666666664E-005     2.2285664077752020E-025
   1.0866666666666662E-005     1.8546498489631284E-025
   1.1066666666666660E-005     9.3190431138305314E-026
   1.1266666666666665E-005    -4.9679920678926800E-026
   1.1466666666666663E-005    -2.2558023695282582E-025
   1.1666666666666661E-005    -4.0399877594935246E-025
   1.1866666666666666E-005    -5.4509930461880835E-025
   1.2066666666666664E-005    -6.0664939693300756E-025
   1.2266666666666662E-005    -5.5342371309244028E-025
   1.2466666666666660E-005    -3.6738137893714233E-025
   1.2666666666666665E-005    -5.6257105704924734E-026
   1.2866666666666663E-005     3.4200776748429058E-025
   1.3066666666666661E-005     7.6115171048597858E-025
   1.3266666666666666E-005     1.1158561246450567E-024
   1.3466666666666664E-005     1.3177718379929982E-024
   1.3666666666666662E-005     1.2957672815624163E-024
   1.3866666666666660E-005     1.0161178360063305E-024
   1.4066666666666665E-005     4.9736211753120018E-025
   1.4266666666666663E-005    -1.8525129049941707E-025
   1.4466666666666661E-005    -9.0913330148795471E-025
   1.4666666666666666E-005    -1.5279168477292939E-024
   1.4866666666666664E-005    -1.9056820414200199E-024
   1.5066666666666662E-005    -1.9544495977889240E-024
   1.5266666666666661E-005    -1.6648217780461193E-024
   1.5466666666666665E-005    -1.1192022711149250E-024
   1.5666666666666663E-005    -4.7956963288526022E-025
   1.5866666666666662E-005     5.2586341920366078E-026
   1.6066666666666660E-005     2.9866241087792931E-025
   1.6266666666666665E-005     1.7372655794539220E-025
   1.6466666666666663E-005    -2.5487651509275657E-025
   1.6666666666666661E-005    -7.4393085080843189E-025
   1.6866666666666666E-005    -9.0454133403200386E-025
   1.7066666666666664E-005    -2.9384390931700922E-025
   1.7266666666666662E-005     1.4408638811065823E-024
   1.7466666666666660E-005     4.3939864486911537E-024
   1.7666666666666665E-005     8.2546478365340809E-024
   1.7866666666666663E-005     1.2234457683807395E-023
   1.8066666666666661E-005     1.5118551089822905E-023
   1.8266666666666666E-005     1.5467261766157523E-023
   1.8466666666666664E-005     1.1959727113940930E-023
   1.8666666666666662E-005     3.8257522837085615E-024
   1.8866666666666660E-005    -8.7310589277286441E-024
   1.9066666666666665E-005    -2.4244520014111563E-023
   1.9266666666666663E-005    -3.9957945733654276E-023
   1.9466666666666661E-005    -5.2148043988697441E-023
   1.9666666666666666E-005    -5.6818676962803224E-023
   1.9866666666666664E-005    -5.0681960969051834E-023
   2.0066666666666662E-005    -3.2236791813153816E-023
   2.0266666666666660E-005    -2.6691681202937575E-024
   2.0466666666666665E-005     3.3733285870769629E-023
   2.0666666666666663E-005     6.9913383999520526E-023
   2.0866666666666661E-005     9.7247809438231189E-023
   2.1066666666666659E-005     1.0753272591621574E-022
   2.1266666666666664E-005     9.5409641434492281E-023
   2.1466666666666662E-005     6.0657937233065778E-023
   2.1666666666666660E-005     9.6438715728259505E-024
   2.1866666666666665E-005    -4.4757626287020223E-023
   2.2066666666666663E-005    -8.5220393254744379E-023
   2.2266666666666661E-005    -9.4020083600486852E-023
   2.2466666666666659E-005    -5.8524465215042125E-023
   2.2666666666666664E-005     2.3033591253264508E-023
   2.2866666666666662E-005     1.3710689543912127E-022
   2.3066666666666660E-005     2.5345254426963079E-022
   2.3266666666666665E-005     3.2824692401603423E-022
   2.3466666666666663E-005     3.1231098850276088E-022
   2.3666666666666661E-005     1.6381378476154139E-022
   2.3866666666666660E-005    -1.3663168426520096E-022
   2.4066666666666664E-005    -5.7189393561128898E-022
   2.4266666666666662E-005    -1.0794785995886517E-021
   2.4466666666666661E-005    -1.5520088779509950E-021
   2.4666666666666665E-005    -1.8498623500072015E-021
   2.4866666666666663E-005    -1.8263921106381384E-021
   2.5066666666666662E-005    -1.3629348841561449E-021
   2.5266666666666660E-005    -4.0739895032317432E-022
   2.5466666666666665E-005     9.9249781979978101E-022
   2.5666666666666663E-005     2.6713883339105515E-021
   2.5866666666666661E-005     4.3525982674984291E-021
   2.6066666666666666E-005     5.6835300014747095E-021
   2.6266666666666664E-005     6.2986275509968809E-021
   2.6466666666666662E-005     5.9008646984275919E-021
   2.6666666666666660E-005     4.3454714046471106E-021
   2.6866666666666665E-005     1.7048801409805250E-021
   2.7066666666666663E-005    -1.7064425151527855E-021
   2.7266666666666661E-005    -5.3631357323905818E-021
   2.7466666666666666E-005    -8.6206961010858207E-021
   2.7666666666666664E-005    -1.0856830661357852E-020
   2.7866666666666662E-005    -1.1634676955822813E-020
   2.8066666666666667E-005    -1.0846554097964247E-020
   2.8266666666666658E-005    -8.7912422177861567E-021
   2.8466666666666663E-005    -6.1440137261870791E-021
   2.8666666666666668E-005    -3.7984032131628984E-021
   2.8866666666666659E-005    -2.5906397782363271E-021
   2.9066666666666664E-005    -2.9562172451565814E-021
   2.9266666666666669E-005    -4.6046334776935586E-021
   2.9466666666666660E-005    -6.3217108125220586E-021
   2.9666666666666665E-005    -6.0084013588452103E-021
   2.9866666666666656E-005    -1.0330988614543108E-021
   3.0066666666666661E-005     1.1089694675950296E-020
   3.0266666666666666E-005     3.1771389764721713E-020
   3.0466666666666657E-005     6.0347250931320210E-020
   3.0666666666666662E-005     9.3259081007557391E-020
   3.0866666666666667E-005     1.2372226776123957E-019
   3.1066666666666658E-005     1.4215135787963515E-019
   3.1266666666666663E-005     1.3751106137859191E-019
   3.1466666666666668E-005     9.9574730971710903E-020
   3.1666666666666659E-005     2.1831582507826128E-020
   3.1866666666666664E-005    -9.5466014993908191E-020
   3.2066666666666656E-005    -2.4282304499815485E-019
   3.2266666666666660E-005    -4.0038184856798128E-019
   3.2466666666666665E-005    -5.3886521548861277E-019
   3.2666666666666657E-005    -6.2300020823832195E-019
   3.2866666666666661E-005    -6.1736961412333190E-019
   3.3066666666666666E-005    -4.9404892641860539E-019
   3.3266666666666658E-005    -2.4078672098846854E-019
   3.3466666666666662E-005     1.3197706906920026E-019
   3.3666666666666667E-005     5.8714263900928696E-019
   3.3866666666666659E-005     1.0617029804061143E-018
   3.4066666666666664E-005     1.4732236218383227E-018
   3.4266666666666668E-005     1.7319908999766826E-018
   3.4466666666666660E-005     1.7574628254981735E-018
   3.4666666666666665E-005     1.4963610945204281E-018
   3.4866666666666656E-005     9.3877518174046725E-019
   3.5066666666666661E-005     1.2831199679803115E-019
   3.5266666666666666E-005    -8.3714843045241499E-019
   3.5466666666666657E-005    -1.8160805049447583E-018
   3.5666666666666662E-005    -2.6450750276101692E-018
   3.5866666666666667E-005    -3.1688415105024783E-018
   3.6066666666666658E-005    -3.2730502305133487E-018
   3.6266666666666663E-005    -2.9128981464109912E-018
   3.6466666666666668E-005    -2.1299518982355656E-018
   3.6666666666666659E-005    -1.0512569661309929E-018
   3.6866666666666664E-005     1.3207868255603976E-019
   3.7066666666666669E-005     1.2050160175405557E-018
   3.7266666666666660E-005     1.9805149910941394E-018
   3.7466666666666665E-005     2.3519138376750160E-018
   3.7666666666666656E-005     2.3319496871872792E-018
   3.7866666666666661E-005     2.0651343808510136E-018
   3.8066666666666666E-005     1.8043611580868006E-018
   3.8266666666666657E-005     1.8500516180590353E-018
   3.8466666666666662E-005     2.4597811249787007E-018
   3.8666666666666667E-005     3.7462261741143797E-018
   3.8866666666666658E-005     5.5887213971560063E-018
   3.9066666666666663E-005     7.5865827404617330E-018
   3.9266666666666668E-005     9.0784666128100816E-018
   3.9466666666666659E-005     9.2409768930410824E-018
   3.9666666666666664E-005     7.2625469381844895E-018
   3.9866666666666655E-005     2.5681668900987374E-018
   4.0066666666666660E-005    -4.9486400369723827E-018
   4.0266666666666665E-005    -1.4743259993673242E-017
   4.0466666666666656E-005    -2.5545426313843617E-017
   4.0666666666666661E-005    -3.5439139396996496E-017
   4.0866666666666666E-005    -4.2117095515132174E-017
   4.1066666666666657E-005    -4.3292225244469206E-017
   4.1266666666666662E-005    -3.7206961406634024E-017
   4.1466666666666667E-005    -2.3143867891149252E-017
   4.1666666666666658E-005    -1.8192732694011792E-018
   4.1866666666666663E-005     2.4456718398137757E-017
   4.2066666666666668E-005     5.1940504092606921E-017
   4.2266666666666660E-005     7.5964690518501139E-017
   4.2466666666666664E-005     9.1750187602278358E-017
   4.2666666666666656E-005     9.5392239118246926E-017
   4.2866666666666661E-005     8.4825217823555331E-017
   4.3066666666666665E-005     6.0537008259944299E-017
   4.3266666666666657E-005     2.5818599450556209E-017
   4.3466666666666662E-005    -1.3596115602427730E-017
   4.3666666666666666E-005    -5.0526283452147972E-017
   4.3866666666666658E-005    -7.7852237156492579E-017
   4.4066666666666663E-005    -9.0261958319317374E-017
   4.4266666666666667E-005    -8.5847693499126185E-017
   4.4466666666666659E-005    -6.7121605081240250E-017
   4.4666666666666664E-005    -4.1072783830791324E-017
   4.4866666666666655E-005    -1.8046499093720927E-017
   4.5066666666666660E-005    -9.4718738553643468E-018
   4.5266666666666665E-005    -2.4757840695544652E-017
   4.5466666666666656E-005    -6.7956148675252350E-017
   4.5666666666666661E-005    -1.3498559562903145E-016
   4.5866666666666666E-005    -2.1225855960140740E-016
   4.6066666666666657E-005    -2.7740571522239703E-016
   4.6266666666666662E-005    -3.0245081305464698E-016
   4.6466666666666667E-005    -2.5928348952249215E-016
   4.6666666666666658E-005    -1.2670051416827316E-016
   4.6866666666666663E-005     1.0225286377196575E-016
   4.7066666666666668E-005     4.1426907295437609E-016
   4.7266666666666659E-005     7.7278498677188552E-016
   4.7466666666666664E-005     1.1193996976622869E-015
   4.7666666666666655E-005     1.3804158105801832E-015
   4.7866666666666660E-005     1.4782391320417384E-015
   4.8066666666666665E-005     1.3462639840588909E-015
   4.8266666666666656E-005     9.4483796376774558E-016
   4.8466666666666661E-005     2.7520435294058298E-016
   4.8666666666666666E-005    -6.1184739787909297E-016
   4.8866666666666657E-005    -1.6153818965863443E-015
   4.9066666666666662E-005    -2.5933420938717325E-015
   4.9266666666666667E-005    -3.3810535429056652E-015
   4.9466666666666658E-005    -3.8170836739487271E-015
   4.9666666666666663E-005    -3.7725016025132889E-015
   4.9866666666666655E-005    -3.1782839684781667E-015
   5.0066666666666659E-005    -2.0452434065569636E-015
   5.0266666666666664E-005    -4.7161183007610600E-016
   5.0466666666666656E-005     1.3646942020683630E-015
   5.0666666666666660E-005     3.2293085368516363E-015
   5.0866666666666665E-005     4.8671480883151830E-015
   5.1066666666666657E-005     6.0446616837094547E-015
   5.1266666666666661E-005     6.5905903366098604E-015
   5.1466666666666666E-005     6.4266804564342821E-015
   5.1666666666666658E-005     5.5811008197236744E-015
   5.1866666666666662E-005     4.1804019363911817E-015
   5.2066666666666667E-005     2.4203000982437348E-015
   5.2266666666666659E-005     5.2055492465239717E-016
   5.2466666666666664E-005    -1.3263984855121836E-015
   5.2666666666666655E-005    -3.0006291464233222E-015
   5.2866666666666660E-005    -4.4811018507045315E-015
   5.3066666666666665E-005    -5.8435428309260736E-015
   5.3266666666666656E-005    -7.2257734075903203E-015
   5.3466666666666661E-005    -8.7642445766335863E-015
   5.3666666666666666E-005    -1.0513756088888866E-014
   5.3866666666666657E-005    -1.2369285315451798E-014
   5.4066666666666662E-005    -1.4012538807290071E-014
   5.4266666666666667E-005    -1.4904836603725931E-014
   5.4466666666666658E-005    -1.4341540882632636E-014
   5.4666666666666663E-005    -1.1571852136152529E-014
   5.4866666666666668E-005    -5.9730614263272133E-015
   5.5066666666666659E-005     2.7470169015029993E-015
   5.5266666666666664E-005     1.4358604304070747E-014
   5.5466666666666655E-005     2.7975368967056441E-014
   5.5666666666666660E-005     4.2020834594415075E-014
   5.5866666666666665E-005     5.4328149620700940E-014
   5.6066666666666656E-005     6.2384741072871165E-014
   5.6266666666666661E-005     6.3705782561665660E-014
   5.6466666666666666E-005     5.6291005482922554E-014
   5.6666666666666657E-005     3.9093891065789864E-014
   5.6866666666666662E-005     1.2415943997433498E-014
   5.7066666666666667E-005    -2.1862019691366511E-014
   5.7266666666666658E-005    -6.0284345195153109E-014
   5.7466666666666663E-005    -9.8100296754594671E-014
   5.7666666666666654E-005    -1.2981356536702839E-013
   5.7866666666666659E-005    -1.4994431574982320E-013
   5.8066666666666664E-005    -1.5389921941560293E-013
   5.8266666666666655E-005    -1.3881057285444570E-013
   5.8466666666666660E-005    -1.0419346608836791E-013
   5.8666666666666665E-005    -5.2285181113384922E-014
   5.8866666666666656E-005     1.2026228199908282E-014
   5.9066666666666661E-005     8.1711813057987507E-014
   5.9266666666666666E-005     1.4849928006960035E-013
   5.9466666666666657E-005     2.0403170144418049E-013
   5.9666666666666662E-005     2.4110090560724721E-013
   5.9866666666666667E-005     2.5474095144861047E-013
   6.0066666666666659E-005     2.4297734423536814E-013
   6.0266666666666663E-005     2.0708086184662668E-013
   6.0466666666666655E-005     1.5126169182070949E-013
   6.0666666666666660E-005     8.1849084562500222E-014
   6.0866666666666664E-005     6.1089295639245472E-015
   6.1066666666666656E-005    -6.9062535786037707E-014
   6.1266666666666661E-005    -1.3828668226980688E-013
   6.1466666666666665E-005    -1.9842872412416867E-013
   6.1666666666666657E-005    -2.4871043202007158E-013
   6.1866666666666662E-005    -2.9014818117902220E-013
   6.2066666666666666E-005    -3.2440902193839990E-013
   6.2266666666666658E-005    -3.5233363492065037E-013
   6.2466666666666663E-005    -3.7249387092161848E-013
   6.2666666666666668E-005    -3.8020045759599774E-013
   6.2866666666666659E-005    -3.6733992014808476E-013
   6.3066666666666664E-005    -3.2328510931235322E-013
   6.3266666666666655E-005    -2.3690875166205357E-013
   6.3466666666666660E-005    -9.9476066284865913E-014
   6.3666666666666665E-005     9.2064893303666500E-014
   6.3866666666666656E-005     3.3206483181960974E-013
   6.4066666666666661E-005     6.0417985004982135E-013
   6.4266666666666666E-005     8.8108276577606103E-013
   6.4466666666666657E-005     1.1263376487172223E-012
   6.4666666666666662E-005     1.2985226791358561E-012
   6.4866666666666667E-005     1.3572543015852744E-012
   6.5066666666666658E-005     1.2702995865086019E-012
   6.5266666666666663E-005     1.0206122034913069E-012
   6.5466666666666654E-005     6.1194160254071477E-013
   6.5666666666666659E-005     7.1714932172709597E-014
   6.5866666666666664E-005    -5.4978172048607711E-013
   6.6066666666666655E-005    -1.1843240451778491E-012
   6.6266666666666660E-005    -1.7544492872665837E-012
   6.6466666666666665E-005    -2.1848496433713661E-012
   6.6666666666666656E-005    -2.4146662706417753E-012
   6.6866666666666661E-005    -2.4085163778058090E-012
   6.7066666666666666E-005    -2.1640313649421595E-012
   6.7266666666666657E-005    -1.7140296964139260E-012
   6.7466666666666662E-005    -1.1223274233119888E-012
   6.7666666666666667E-005    -4.7325846065826406E-013
   6.7866666666666658E-005     1.4376045390029234E-013
   6.8066666666666663E-005     6.5208491608322302E-013
   6.8266666666666655E-005     1.0047826381090893E-012
   6.8466666666666659E-005     1.1970249235985061E-012
   6.8666666666666664E-005     1.2706875604997011E-012
   6.8866666666666656E-005     1.3090468478885283E-012
   6.9066666666666660E-005     1.4210964176609099E-012
   6.9266666666666665E-005     1.7171143093388334E-012
   6.9466666666666657E-005     2.2790403868251803E-012
   6.9666666666666661E-005     3.1309810446831244E-012
   6.9866666666666666E-005     4.2159008782162874E-012
   7.0066666666666658E-005     5.3844765590167300E-012
   7.0266666666666662E-005     6.4007008976024227E-012
   7.0466666666666654E-005     6.9664106019558673E-012
   7.0666666666666659E-005     6.7637288132814010E-012
   7.0866666666666664E-005     5.5108897771228391E-012
   7.1066666666666655E-005     3.0237454772979959E-012
   7.1266666666666660E-005    -7.2713124421014634E-013
   7.1466666666666665E-005    -5.5744926965372398E-012
   7.1666666666666656E-005    -1.1137495275089945E-011
   7.1866666666666661E-005    -1.6836957499647125E-011
   7.2066666666666666E-005    -2.1945131735984576E-011
   7.2266666666666657E-005    -2.5667356719037468E-011
   7.2466666666666662E-005    -2.7246941780682497E-011
   7.2666666666666667E-005    -2.6079835166020406E-011
   7.2866666666666658E-005    -2.1822374531177749E-011
   7.3066666666666663E-005    -1.4474476238775793E-011
   7.3266666666666654E-005    -4.4228983172164254E-012
   7.3466666666666659E-005     7.5667741594454915E-012
   7.3666666666666664E-005     2.0412693955713941E-011
   7.3866666666666655E-005     3.2830104167412477E-011
   7.4066666666666660E-005     4.3482223510822181E-011
   7.4266666666666665E-005     5.1149061459165935E-011
   7.4466666666666656E-005     5.4889777763999767E-011
   7.4666666666666661E-005     5.4173265581960060E-011
   7.4866666666666666E-005     4.8954748406651913E-011
   7.5066666666666657E-005     3.9683484947516968E-011
   7.5266666666666662E-005     2.7235987055402171E-011
   7.5466666666666653E-005     1.2781337101759574E-011