  -3.3333333333333335E-005     0.0000000000000000     
  -3.3133333333333337E-005     0.0000000000000000     
  -3.2933333333333332E-005     0.0000000000000000     
  -3.2733333333333334E-005     0.0000000000000000     
  -3.2533333333333336E-005     0.0000000000000000     
  -3.2333333333333338E-005     0.0000000000000000     
  -3.2133333333333333E-005     0.0000000000000000     
  -3.1933333333333335E-005     0.0000000000000000     
  -3.1733333333333337E-005     0.0000000000000000     
  -3.1533333333333332E-005     0.0000000000000000     
  -3.1333333333333334E-005     0.0000000000000000     
  -3.1133333333333336E-005     0.0000000000000000     
  -3.0933333333333338E-005     0.0000000000000000     
  -3.0733333333333333E-005     0.0000000000000000     
  -3.0533333333333335E-005     0.0000000000000000     
  -3.0333333333333337E-005     0.0000000000000000     
  -3.0133333333333335E-005     0.0000000000000000     
  -2.9933333333333334E-005     0.0000000000000000     
  -2.9733333333333336E-005     0.0000000000000000     
  -2.9533333333333334E-005     0.0000000000000000     
  -2.9333333333333336E-005     0.0000000000000000     
  -2.9133333333333334E-005     0.0000000000000000     
  -2.8933333333333336E-005     0.0000000000000000     
  -2.8733333333333335E-005     0.0000000000000000     
  -2.8533333333333333E-005     0.0000000000000000     
  -2.8333333333333335E-005     0.0000000000000000     
  -2.8133333333333337E-005     0.0000000000000000     
  -2.7933333333333336E-005     0.0000000000000000     
  -2.7733333333333334E-005     0.0000000000000000     
  -2.7533333333333336E-005     0.0000000000000000     
  -2.7333333333333335E-005     0.0000000000000000     
  -2.7133333333333333E-005     0.0000000000000000     
  -2.6933333333333335E-005     0.0000000000000000     
  -2.6733333333333337E-005     0.0000000000000000     
  -2.6533333333333336E-005     0.0000000000000000     
  -2.6333333333333334E-005     0.0000000000000000     
  -2.6133333333333336E-005     0.0000000000000000     
  -2.5933333333333335E-005     0.0000000000000000     
  -2.5733333333333333E-005     0.0000000000000000     
  -2.5533333333333335E-005     0.0000000000000000     
  -2.5333333333333337E-005     0.0000000000000000     
  -2.5133333333333336E-005     0.0000000000000000     
  -2.4933333333333334E-005     0.0000000000000000     
  -2.4733333333333336E-005     0.0000000000000000     
  -2.4533333333333334E-005     0.0000000000000000     
  -2.4333333333333333E-005     0.0000000000000000     
  -2.4133333333333335E-005     0.0000000000000000     
  -2.3933333333333337E-005     0.0000000000000000     
  -2.3733333333333335E-005     0.0000000000000000     
  -2.3533333333333334E-005     0.0000000000000000     
  -2.3333333333333336E-005     0.0000000000000000     
  -2.3133333333333338E-005     0.0000000000000000     
  -2.2933333333333336E-005     0.0000000000000000     
  -2.2733333333333335E-005     0.0000000000000000     
  -2.2533333333333337E-005     0.0000000000000000     
  -2.2333333333333335E-005     0.0000000000000000     
  -2.2133333333333334E-005     0.0000000000000000     
  -2.1933333333333336E-005     0.0000000000000000     
  -2.1733333333333338E-005     0.0000000000000000     
  -2.1533333333333336E-005     0.0000000000000000     
  -2.1333333333333335E-005     0.0000000000000000     
  -2.1133333333333337E-005     0.0000000000000000     
  -2.0933333333333335E-005     0.0000000000000000     
  -2.0733333333333334E-005     0.0000000000000000     
  -2.0533333333333336E-005     0.0000000000000000     
  -2.0333333333333337E-005     0.0000000000000000     
  -2.0133333333333336E-005     0.0000000000000000     
  -1.9933333333333334E-005     0.0000000000000000     
  -1.9733333333333336E-005     0.0000000000000000     
  -1.9533333333333335E-005     0.0000000000000000     
  -1.9333333333333333E-005     0.0000000000000000     
  -1.9133333333333335E-005     0.0000000000000000     
  -1.8933333333333337E-005     0.0000000000000000     
  -1.8733333333333336E-005     0.0000000000000000     
  -1.8533333333333334E-005     0.0000000000000000     
  -1.8333333333333336E-005     0.0000000000000000     
  -1.8133333333333335E-005     0.0000000000000000     
  -1.7933333333333337E-005     0.0000000000000000     
  -1.7733333333333335E-005     0.0000000000000000     
  -1.7533333333333337E-005     0.0000000000000000     
  -1.7333333333333336E-005     0.0000000000000000     
  -1.7133333333333334E-005     0.0000000000000000     
  -1.6933333333333336E-005     0.0000000000000000     
  -1.6733333333333335E-005     0.0000000000000000     
  -1.6533333333333337E-005     0.0000000000000000     
  -1.6333333333333335E-005     0.0000000000000000     
  -1.6133333333333337E-005     0.0000000000000000     
  -1.5933333333333336E-005     0.0000000000000000     
  -1.5733333333333334E-005     0.0000000000000000     
  -1.5533333333333336E-005     0.0000000000000000     
  -1.5333333333333334E-005     0.0000000000000000     
  -1.5133333333333336E-005     0.0000000000000000     
  -1.4933333333333335E-005     0.0000000000000000     
  -1.4733333333333337E-005     0.0000000000000000     
  -1.4533333333333335E-005     0.0000000000000000     
  -1.4333333333333337E-005     0.0000000000000000     
  -1.4133333333333336E-005     0.0000000000000000     
  -1.3933333333333334E-005     0.0000000000000000     
  -1.3733333333333336E-005     0.0000000000000000     
  -1.3533333333333335E-005     0.0000000000000000     
  -1.3333333333333337E-005     0.0000000000000000     
  -1.3133333333333335E-005     0.0000000000000000     
  -1.2933333333333337E-005     0.0000000000000000     
  -1.2733333333333336E-005    -1.8212726199449692E-041
  -1.2533333333333338E-005    -8.2742348743975021E-041
  -1.2333333333333336E-005    -1.6093382514570267E-040
  -1.2133333333333335E-005    -2.4033953993177407E-040
  -1.1933333333333337E-005    -2.7259851583980335E-040
  -1.1733333333333335E-005    -3.2646072170073350E-040
  -1.1533333333333337E-005    -1.5791595707831184E-040
  -1.1333333333333336E-005     5.0456649053268990E-040
  -1.1133333333333337E-005     1.3720305147019391E-039
  -1.0933333333333336E-005     3.1729596309360206E-039
  -1.0733333333333334E-005     6.1337368681791241E-039
  -1.0533333333333336E-005     9.5106220661751422E-039
  -1.0333333333333335E-005     1.0935354431038361E-038
  -1.0133333333333337E-005     1.4496551917578444E-038
  -9.9333333333333354E-006     5.7217566020569813E-039
  -9.7333333333333373E-006    -1.7933491631252312E-038
  -9.5333333333333358E-006    -6.2108534769861701E-038
  -9.3333333333333343E-006    -1.4851266767368508E-037
  -9.1333333333333362E-006    -2.4528586790129057E-037
  -8.9333333333333348E-006    -3.2793119272312823E-037
  -8.7333333333333367E-006    -3.3910616856951943E-037
  -8.5333333333333352E-006    -1.7972926708909235E-037
  -8.3333333333333371E-006     2.5942097214976928E-037
  -8.1333333333333356E-006     1.0972867984525216E-036
  -7.9333333333333376E-006     2.3763454808018817E-036
  -7.7333333333333361E-006     3.9731572772510191E-036
  -7.5333333333333346E-006     5.4765277951839930E-036
  -7.3333333333333365E-006     6.0668510053519168E-036
  -7.1333333333333351E-006     4.4619881640001356E-036
  -6.9333333333333370E-006    -9.7767173488154434E-037
  -6.7333333333333355E-006    -1.1865624606747694E-035
  -6.5333333333333374E-006    -2.9021702002072809E-035
  -6.3333333333333359E-006    -5.1279330558481497E-035
  -6.1333333333333379E-006    -7.3984428619902838E-035
  -5.9333333333333364E-006    -8.7556363066844939E-035
  -5.7333333333333349E-006    -7.6813999776684762E-035
  -5.5333333333333368E-006    -2.2104576097915384E-035
  -5.3333333333333354E-006     9.6533604469397824E-035
  -5.1333333333333373E-006     2.9110972810154613E-034
  -4.9333333333333358E-006     5.5303416163262900E-034
  -4.7333333333333377E-006     8.3740809366215405E-034
  -4.5333333333333362E-006     1.0480576610482778E-033
  -4.3333333333333348E-006     1.0302127179801699E-033
  -4.1333333333333367E-006     5.8065675686224923E-034
  -3.9333333333333352E-006    -5.1341415659249250E-034
  -3.7333333333333371E-006    -2.3975631078971798E-033
  -3.5333333333333356E-006    -5.0334408778696659E-033
  -3.3333333333333376E-006    -8.0547386437950760E-033
  -3.1333333333333361E-006    -1.0629450582054036E-032
  -2.9333333333333346E-006    -1.1387455849001741E-032
  -2.7333333333333365E-006    -8.4951818195952630E-033
  -2.5333333333333384E-006     3.1611924518347647E-035
  -2.3333333333333336E-006     1.5704209167080808E-032
  -2.1333333333333355E-006     3.8614152129462117E-032
  -1.9333333333333374E-006     6.6262722402990080E-032
  -1.7333333333333393E-006     9.2426294068150585E-032
  -1.5333333333333345E-006     1.0650229174134042E-031
  -1.3333333333333364E-006     9.3940362793323161E-032
  -1.1333333333333383E-006     3.8421251744012737E-032
  -9.3333333333333343E-007    -7.3694808380797081E-032
  -7.3333333333333535E-007    -2.4655773456061298E-031
  -5.3333333333333726E-007    -4.6633481449855680E-031
  -3.3333333333333918E-007    -6.9279478074994563E-031
  -1.3333333333333432E-007    -8.5394812591737380E-031
   6.6666666666663770E-008    -8.4775396431615001E-031
   2.6666666666666185E-007    -5.5525613168433149E-031
   4.6666666666666672E-007     1.3139761170225757E-031
   6.6666666666666480E-007     1.2652971541044601E-030
   8.6666666666666289E-007     2.7894750567628285E-030
   1.0666666666666610E-006     4.4805342575211028E-030
   1.2666666666666658E-006     5.9090757934502223E-030
   1.4666666666666639E-006     6.4409349816971491E-030
   1.6666666666666620E-006     5.3053827007546449E-030
   1.8666666666666669E-006     1.7514043995716528E-030
   2.0666666666666649E-006    -4.7018930724874706E-030
   2.2666666666666630E-006    -1.3941117498652086E-029
   2.4666666666666611E-006    -2.4917126526147578E-029
   2.6666666666666660E-006    -3.5382881282099490E-029
   2.8666666666666641E-006    -4.1840993138360302E-029
   3.0666666666666622E-006    -3.9844289064385706E-029
   3.2666666666666602E-006    -2.4768484956947374E-029
   3.4666666666666651E-006     6.8992571305451481E-030
   3.6666666666666632E-006     5.5844812693203682E-029
   3.8666666666666613E-006     1.1805485432028630E-028
   4.0666666666666661E-006     1.8326027721040817E-028
   4.2666666666666642E-006     2.3434019895882663E-028
   4.4666666666666623E-006     2.4840602560567062E-028
   4.6666666666666604E-006     2.0018444825876764E-028
   4.8666666666666652E-006     6.7979044820518176E-029
   5.0666666666666633E-006    -1.5811605400792961E-028
   5.2666666666666614E-006    -4.6691165991760406E-028
   5.4666666666666663E-006    -8.1782670917029121E-028
   5.6666666666666644E-006    -1.1365151859244067E-027
   5.8666666666666624E-006    -1.3177318125741397E-027
   6.0666666666666605E-006    -1.2383969878368556E-027
   6.2666666666666654E-006    -7.8243858626652051E-028
   6.4666666666666635E-006     1.2354354294711721E-028
   6.6666666666666616E-006     1.4682794620304855E-027
   6.8666666666666664E-006     3.1159973837103932E-027
   7.0666666666666645E-006     4.7808519352443735E-027
   7.2666666666666626E-006     6.0296697949931137E-027
   7.4666666666666607E-006     6.3260469674475367E-027
   7.6666666666666655E-006     5.1237205048306237E-027
   7.8666666666666636E-006     2.0074098096802649E-027
   8.0666666666666617E-006    -3.1344717768117672E-027
   8.2666666666666598E-006    -9.9367430115406355E-027
   8.4666666666666647E-006    -1.7430213057065182E-026
   8.6666666666666627E-006    -2.4015262606113099E-026
   8.8666666666666608E-006    -2.7589187423942317E-026
   9.0666666666666657E-006    -2.5863048036544880E-026
   9.2666666666666638E-006    -1.6869289783164971E-026
   9.4666666666666619E-006     3.8845071843166194E-028
   9.6666666666666599E-006     2.5250671055488689E-026
   9.8666666666666648E-006     5.4845398343468951E-026
   1.0066666666666663E-005     8.3859074502768169E-026
   1.0266666666666661E-005     1.0483386138548568E-025
   1.0466666666666666E-005     1.0913757092806811E-025
   1.0666666666666664E-005     8.8639781061788997E-026
   1.0866666666666662E-005     3.7959556434628598E-026
   1.1066666666666660E-005    -4.3051567066891131E-026
   1.1266666666666665E-005    -1.4712435602887788E-025
   1.1466666666666663E-005    -2.5835727827580336E-025
   1.1666666666666661E-005    -3.5266672536053073E-025
   1.1866666666666666E-005    -4.0045126008887026E-025
   1.2066666666666664E-005    -3.7167607308309250E-025
   1.2266666666666662E-005    -2.4305639842254693E-025
   1.2466666666666660E-005    -6.3695626070900422E-027
   1.2666666666666665E-005     3.2372833654426773E-025
   1.2866666666666663E-005     7.0449584678149127E-025
   1.3066666666666661E-005     1.0647756786692324E-024
   1.3266666666666666E-005     1.3114440171407090E-024
   1.3466666666666664E-005     1.3435800340648664E-024
   1.3666666666666662E-005     1.0737467614560328E-024
   1.3866666666666660E-005     4.5381479601302220E-025
   1.4066666666666665E-005    -4.9927046267350529E-025
   1.4266666666666663E-005    -1.6840081575706306E-024
   1.4466666666666661E-005    -2.9080542747885813E-024
   1.4666666666666666E-005    -3.9012813416889974E-024
   1.4866666666666664E-005    -4.3518254037781012E-024
   1.5066666666666662E-005    -3.9645074446485249E-024
   1.5266666666666661E-005    -2.5354684024064613E-024
   1.5466666666666665E-005    -3.0913162809802725E-026
   1.5666666666666663E-005     3.3471748460143243E-024
   1.5866666666666662E-005     7.1281022724970825E-024
   1.6066666666666660E-005     1.0590860322953060E-023
   1.6266666666666665E-005     1.2846376782166336E-023
   1.6466666666666663E-005     1.2985289328527396E-023
   1.6666666666666661E-005     1.0278148834787307E-023
   1.6866666666666666E-005     4.3986486451256404E-024
   1.7066666666666664E-005    -4.3741190054707803E-024
   1.7266666666666662E-005    -1.5027138699238203E-023
   1.7466666666666660E-005    -2.5810805645383782E-023
   1.7666666666666665E-005    -3.4401171685828797E-023
   1.7866666666666663E-005    -3.8240301977375116E-023
   1.8066666666666661E-005    -3.5031272220031067E-023
   1.8266666666666666E-005    -2.3322340089508017E-023
   1.8466666666666664E-005    -3.0754943283970260E-024
   1.8666666666666662E-005     2.3912094404023541E-023
   1.8866666666666660E-005     5.3869613777737847E-023
   1.9066666666666665E-005     8.1307859226211496E-023
   1.9266666666666663E-005     9.9721665726284948E-023
   1.9466666666666661E-005     1.0270787194195964E-022
   1.9666666666666666E-005     8.5365905901611821E-023
   1.9866666666666664E-005     4.5749644439184547E-023
   2.0066666666666662E-005    -1.3933864046819019E-023
   2.0266666666666660E-005    -8.6707160786645302E-023
   2.0466666666666665E-005    -1.6107139856157578E-022
   2.0666666666666663E-005    -2.2228849251166707E-022
   2.0866666666666661E-005    -2.5467715370033010E-022
   2.1066666666666659E-005    -2.4467540700318723E-022
   2.1266666666666664E-005    -1.8419201384562547E-022
   2.1466666666666662E-005    -7.3588799481627620E-023
   2.1666666666666660E-005     7.6442139643397429E-023
   2.1866666666666665E-005     2.4477330254492001E-022
   2.2066666666666663E-005     4.0194323011339253E-022
   2.2266666666666661E-005     5.1451088862056673E-022
   2.2466666666666659E-005     5.5122123220409562E-022
   2.2666666666666664E-005     4.9003543530290690E-022
   2.2866666666666662E-005     3.2467056120753083E-022
   2.3066666666666660E-005     6.9096174314333912E-023
   2.3266666666666665E-005    -2.4145471182415398E-022
   2.3466666666666663E-005    -5.5394066044081846E-022
   2.3666666666666661E-005    -8.0561885064453350E-022
   2.3866666666666660E-005    -9.3597074001814091E-022
   2.4066666666666664E-005    -9.0055080956704713E-022
   2.4266666666666662E-005    -6.8399279386207373E-022
   2.4466666666666661E-005    -3.0897809243957256E-022
   2.4666666666666665E-005     1.6181393658510474E-022
   2.4866666666666663E-005     6.3279191212902256E-022
   2.5066666666666662E-005     9.9192913548908709E-022
   2.5266666666666660E-005     1.1348444067117292E-021
   2.5466666666666665E-005     9.9246379614797529E-022
   2.5666666666666663E-005     5.5641955943317456E-022
   2.5866666666666661E-005    -1.0454254837774709E-022
   2.6066666666666666E-005    -8.4338442075340482E-022
   2.6266666666666664E-005    -1.4529576505050956E-021
   2.6466666666666662E-005    -1.7040917683162092E-021
   2.6666666666666660E-005    -1.3994892949112655E-021
   2.6866666666666665E-005    -4.3449980500754854E-022
   2.7066666666666663E-005     1.1481158663079977E-021
   2.7266666666666661E-005     3.1242682278029845E-021
   2.7466666666666666E-005     5.0892563989600617E-021
   2.7666666666666664E-005     6.5024113482290268E-021
   2.7866666666666662E-005     6.7771310289884846E-021
   2.8066666666666667E-005     5.4076462113409812E-021
   2.8266666666666658E-005     2.1131525722122321E-021
   2.8466666666666663E-005    -3.0290189804179741E-021
   2.8666666666666668E-005    -9.4942840102087707E-021
   2.8866666666666659E-005    -1.6297275803617153E-020
   2.9066666666666664E-005    -2.2076452544590470E-020
   2.9266666666666669E-005    -2.5283110356613337E-020
   2.9466666666666660E-005    -2.4459612694051586E-020
   2.9666666666666665E-005    -1.8568445576385240E-020
   2.9866666666666656E-005    -7.3136493567807640E-021
   3.0066666666666661E-005     8.6155709149412969E-021
   3.0266666666666666E-005     2.7448101315169016E-020
   3.0466666666666657E-005     4.6433725221637999E-020
   3.0666666666666662E-005     6.2166343370472460E-020
   3.0866666666666667E-005     7.1105629558231252E-020
   3.1066666666666658E-005     7.0227932687644826E-020
   3.1266666666666663E-005     5.7695723433010602E-020
   3.1466666666666668E-005     3.3409501400972452E-020
   3.1666666666666659E-005    -6.9401816342314256E-022
   3.1866666666666664E-005    -4.0703125887481055E-020
   3.2066666666666656E-005    -8.1196842813088574E-020
   3.2266666666666660E-005    -1.1607768766778303E-019
   3.2466666666666665E-005    -1.3964408344010670E-019
   3.2666666666666657E-005    -1.4769721006028460E-019
   3.2866666666666661E-005    -1.3843298247992059E-019
   3.3066666666666666E-005    -1.1287753481318818E-019
   3.3266666666666658E-005    -7.4692965456635362E-020
   3.3466666666666662E-005    -2.9307328409455713E-020
   3.3666666666666667E-005     1.7510617380830886E-020
   3.3866666666666659E-005     6.1336114756274725E-020
   3.4066666666666664E-005     1.0059691974991263E-019
   3.4266666666666668E-005     1.3740816610196112E-019
   3.4466666666666660E-005     1.7729063848284562E-019
   3.4666666666666665E-005     2.2751634895397615E-019
   3.4866666666666656E-005     2.9413406956116303E-019
   3.5066666666666661E-005     3.7811442975104120E-019
   3.5266666666666666E-005     4.7144437229450711E-019
   3.5466666666666657E-005     5.5429566383585716E-019
   3.5666666666666662E-005     5.9449397625456196E-019
   3.5866666666666667E-005     5.5033814175214439E-019
   3.6066666666666658E-005     3.7732614434363896E-019
   3.6266666666666663E-005     3.8561011854405851E-020
   3.6466666666666668E-005    -4.8236661378203484E-019
   3.6666666666666659E-005    -1.1682173909849438E-018
   3.6866666666666664E-005    -1.9576508535592828E-018
   3.7066666666666669E-005    -2.7408153062418012E-018
   3.7266666666666660E-005    -3.3640115984696728E-018
   3.7466666666666665E-005    -3.6454041198170864E-018
   3.7666666666666656E-005    -3.4019546657794358E-018
   3.7866666666666661E-005    -2.4854258250523695E-018
   3.8066666666666666E-005    -8.2278426973991502E-019
   3.8266666666666657E-005     1.5458778373571702E-018
   3.8466666666666662E-005     4.4401326838897312E-018
   3.8666666666666667E-005     7.5309735794132600E-018
   3.8866666666666658E-005     1.0358144201614917E-017
   3.9066666666666663E-005     1.2376278426357451E-017
   3.9266666666666668E-005     1.3028305438372017E-017
   3.9466666666666659E-005     1.1839004763075319E-017
   3.9666666666666664E-005     8.5162138668747552E-018
   3.9866666666666655E-005     3.0430833767894299E-018
   4.0066666666666660E-005    -4.2570145015619766E-018
   4.0266666666666665E-005    -1.2699893811721034E-017
   4.0466666666666656E-005    -2.1276447832729625E-017
   4.0666666666666661E-005    -2.8749169719893698E-017
   4.0866666666666666E-005    -3.3803324246917556E-017
   4.1066666666666657E-005    -3.5236155427846085E-017
   4.1266666666666662E-005    -3.2158279695230649E-017
   4.1466666666666667E-005    -2.4175610681658650E-017
   4.1666666666666658E-005    -1.1519478638064211E-017
   4.1866666666666663E-005     4.9023357576302521E-018
   4.2066666666666668E-005     2.3550262603515869E-017
   4.2266666666666660E-005     4.2395015299480504E-017
   4.2466666666666664E-005     5.9142292321760482E-017
   4.2666666666666656E-005     7.1510218485156825E-017
   4.2866666666666661E-005     7.7519118779364939E-017
   4.3066666666666665E-005     7.5749763705043252E-017
   4.3266666666666657E-005     6.5531204779349572E-017
   4.3466666666666662E-005     4.7032131818338662E-017
   4.3666666666666666E-005     2.1248020435547278E-017
   4.3866666666666658E-005    -1.0103452237165707E-017
   4.4066666666666663E-005    -4.4749325525470311E-017
   4.4266666666666667E-005    -8.0051219022687636E-017
   4.4466666666666659E-005    -1.1317972151927530E-016
   4.4666666666666664E-005    -1.4124678071598442E-016
   4.4866666666666655E-005    -1.6139091604846978E-016
   4.5066666666666660E-005    -1.7083516783162999E-016
   4.5266666666666665E-005    -1.6696023624968301E-016
   4.5466666666666656E-005    -1.4744678835830056E-016
   4.5666666666666661E-005    -1.1053599626746927E-016
   4.5866666666666666E-005    -5.5431696792880034E-017
   4.6066666666666657E-005     1.7175239237464921E-017
   4.6266666666666662E-005     1.0453460091585144E-016
   4.6466666666666667E-005     2.0134384801062050E-016
   4.6666666666666658E-005     2.9949854974692248E-016
   4.6866666666666663E-005     3.8825633456158522E-016
   4.7066666666666668E-005     4.5494877149753878E-016
   4.7266666666666659E-005     4.8629498295306505E-016
   4.7466666666666664E-005     4.7025266246877384E-016
   4.7666666666666655E-005     3.9820413852110810E-016
   4.7866666666666660E-005     2.6714576319366096E-016
   4.8066666666666665E-005     8.1458712432544313E-017
   4.8266666666666656E-005    -1.4618122272599496E-016
   4.8466666666666661E-005    -3.9512496591533463E-016
   4.8666666666666666E-005    -6.3850509635754875E-016
   4.8866666666666657E-005    -8.4637902328491674E-016
   4.9066666666666662E-005    -9.8992045267497806E-016
   4.9266666666666667E-005    -1.0460418259043724E-015
   4.9466666666666658E-005    -1.0016221615716384E-015
   4.9666666666666663E-005    -8.5644726699380742E-016
   4.9866666666666655E-005    -6.2408031235932157E-016
   5.0066666666666659E-005    -3.3017811386482597E-016
   5.0266666666666664E-005    -8.2350513378270058E-018
   5.0466666666666656E-005     3.0670982548392282E-016
   5.0666666666666660E-005     5.8531998185198697E-016
   5.0866666666666665E-005     8.1066747825821896E-016
   5.1066666666666657E-005     9.8273891094379996E-016
   5.1266666666666661E-005     1.1192540594682415E-015
   5.1466666666666666E-005     1.2518429323936974E-015
   5.1666666666666658E-005     1.4174874172216597E-015
   5.1866666666666662E-005     1.6461908610474299E-015
   5.2066666666666667E-005     1.9469129487574516E-015
   5.2266666666666659E-005     2.2946725590458430E-015
   5.2466666666666664E-005     2.6221558418225854E-015
   5.2666666666666655E-005     2.8189836988514154E-015
   5.2866666666666660E-005     2.7409401297187844E-015
   5.3066666666666665E-005     2.2299220987508401E-015
   5.3266666666666656E-005     1.1434054960889284E-015
   5.3466666666666661E-005    -6.0995738906196652E-016
   5.3666666666666666E-005    -3.0339274442027831E-015
   5.3866666666666657E-005    -6.0140999494685180E-015
   5.4066666666666662E-005    -9.3001520037530909E-015
   5.4266666666666667E-005    -1.2507045574408529E-014
   5.4466666666666658E-005    -1.5139251747210364E-014
   5.4666666666666663E-005    -1.6638914120319200E-014
   5.4866666666666668E-005    -1.6455093069303368E-014
   5.5066666666666659E-005    -1.4127365745076260E-014
   5.5266666666666664E-005    -9.3737030129578224E-015
   5.5466666666666655E-005    -2.1704042928453029E-015
   5.5666666666666660E-005     7.1887162891594274E-015
   5.5866666666666665E-005     1.8065411575558481E-014
   5.6066666666666656E-005     2.9490745142484846E-014
   5.6266666666666661E-005     4.0223362208519583E-014
   5.6466666666666666E-005     4.8850745438861055E-014
   5.6666666666666657E-005     5.3926380333783033E-014
   5.6866666666666662E-005     5.4130874555973047E-014
   5.7066666666666667E-005     4.8441462820126323E-014
   5.7266666666666658E-005     3.6292519768905031E-014
   5.7466666666666663E-005     1.7709671639274927E-014
   5.7666666666666654E-005    -6.5981418037203769E-015
   5.7866666666666659E-005    -3.5201204908491203E-014
   5.8066666666666664E-005    -6.5974787491940399E-014
   5.8266666666666655E-005    -9.6192440056780675E-014
   5.8466666666666660E-005    -1.2268691726757412E-013
   5.8666666666666665E-005    -1.4207461673361840E-013
   5.8866666666666656E-005    -1.5103534690851343E-013
   5.9066666666666661E-005    -1.4663505853272599E-013
   5.9266666666666666E-005    -1.2667400756894642E-013
   5.9466666666666657E-005    -9.0037604036902828E-014
   5.9666666666666662E-005    -3.7020715821906598E-014
   5.9866666666666667E-005     3.0409672598241884E-014
   6.0066666666666659E-005     1.0845357017687171E-013
   6.0266666666666663E-005     1.9146067189159375E-013
   6.0466666666666655E-005     2.7209629474550571E-013
   6.0666666666666660E-005     3.4172091325933302E-013
   6.0866666666666664E-005     3.9099759155582323E-013
   6.1066666666666656E-005     4.1071821472056900E-013
   6.1266666666666661E-005     3.9280908058173833E-013
   6.1466666666666665E-005     3.3144411756554936E-013
   6.1666666666666657E-005     2.2416052926761842E-013
   6.1866666666666662E-005     7.2845855495986457E-014
   6.2066666666666666E-005    -1.1555088476923000E-013
   6.2266666666666658E-005    -3.2872993708728753E-013
   6.2466666666666663E-005    -5.4929971975014500E-013
   6.2666666666666668E-005    -7.5566811465209330E-013
   6.2866666666666659E-005    -9.2358960322909347E-013
   6.3066666666666664E-005    -1.0283156444664524E-012
   6.3266666666666655E-005    -1.0472111007306385E-012
   6.3466666666666660E-005    -9.6261778765813602E-013
   6.3666666666666665E-005    -7.6467860965647641E-013
   6.3866666666666656E-005    -4.5378946437027962E-013
   6.4066666666666661E-005    -4.2336178800702824E-014
   6.4266666666666666E-005     4.4459788244363085E-013
   6.4466666666666657E-005     9.6979839432572422E-013
   6.4666666666666662E-005     1.4858946959650414E-012
   6.4866666666666667E-005     1.9387384279384870E-012
   6.5066666666666658E-005     2.2720219027944343E-012
   6.5266666666666663E-005     2.4328137224512503E-012
   6.5466666666666654E-005     2.3775464979379136E-012
   6.5666666666666659E-005     2.0778804932838592E-012
   6.5866666666666664E-005     1.5258126324932301E-012
   6.6066666666666655E-005     7.3740271883115924E-013
   6.6266666666666660E-005    -2.4543976425236474E-013
   6.6466666666666665E-005    -1.3555242535267054E-012
   6.6666666666666656E-005    -2.5035279684440209E-012
   6.6866666666666661E-005    -3.5837120589105813E-012
   6.7066666666666666E-005    -4.4819386825437246E-012
   6.7266666666666657E-005    -5.0854741759256904E-012
   6.7466666666666662E-005    -5.2938405522270771E-012
   6.7666666666666667E-005    -5.0298273592451714E-012
   6.7866666666666658E-005    -4.2496671138915863E-012
   6.8066666666666663E-005    -2.9513840218974868E-012
   6.8266666666666655E-005    -1.1804035573908137E-012
   6.8466666666666659E-005     9.6833626452824823E-013
   6.8666666666666664E-005     3.3522957421974692E-012
   6.8866666666666656E-005     5.7875181976156153E-012
   6.9066666666666660E-005     8.0590316241145290E-012
   6.9266666666666665E-005     9.9351125394996137E-012
   6.9466666666666657E-005     1.1184743011521146E-011
   6.9666666666666661E-005     1.1597333649559699E-011
   6.9866666666666666E-005     1.1003535093306475E-011
   7.0066666666666658E-005     9.2957803540388305E-012
   7.0266666666666662E-005     6.4470078600912020E-012
   7.0466666666666654E-005     2.5259392303798082E-012
   7.0666666666666659E-005    -2.2927933240988031E-012
   7.0866666666666664E-005    -7.7253409764378597E-012
   7.1066666666666655E-005    -1.3383691379462057E-011
   7.1266666666666660E-005    -1.8790343305588524E-011
   7.1466666666666665E-005    -2.3403405593006404E-011
   7.1666666666666656E-005    -2.6652270189396338E-011
   7.1866666666666661E-005    -2.7983075667430479E-011
   7.2066666666666666E-005    -2.6912163493554317E-011
   7.2266666666666657E-005    -2.3084410107136445E-011
   7.2466666666666662E-005    -1.6332111847977469E-011
   7.2666666666666667E-005    -6.7288860398981430E-012
   7.2866666666666658E-005     5.3677989301862754E-012
   7.3066666666666663E-005     1.9292279226738047E-011
   7.3266666666666654E-005     3.4071100541736526E-011
   7.3466666666666659E-005     4.8453654607924676E-011
   7.3666666666666664E-005     6.0976635963619345E-011
   7.3866666666666655E-005     7.0063077069151266E-011
   7.4066666666666660E-005     7.4153235697648352E-011
   7.4266666666666665E-005     7.1860658836496039E-011
   7.4466666666666656E-005     6.2142664444275144E-011
   7.4666666666666661E-005     4.4470831665780812E-011
   7.4866666666666666E-005     1.8984167452378553E-011
   7.5066666666666657E-005    -1.3393881883242426E-011
   7.5266666666666662E-005    -5.0893262052642499E-011
   7.5466666666666653E-005    -9.0906442278952626E-011