  -3.3333333333333335E-005     0.0000000000000000     
  -3.3133333333333337E-005     0.0000000000000000     
  -3.2933333333333332E-005     0.0000000000000000     
  -3.2733333333333334E-005     0.0000000000000000     
  -3.2533333333333336E-005     0.0000000000000000     
  -3.2333333333333338E-005     0.0000000000000000     
  -3.2133333333333333E-005     0.0000000000000000     
  -3.1933333333333335E-005     0.0000000000000000     
  -3.1733333333333337E-005     0.0000000000000000     
  -3.1533333333333332E-005     0.0000000000000000     
  -3.1333333333333334E-005     0.0000000000000000     
  -3.1133333333333336E-005     0.0000000000000000     
  -3.0933333333333338E-005     0.0000000000000000     
  -3.0733333333333333E-005     0.0000000000000000     
  -3.0533333333333335E-005     0.0000000000000000     
  -3.0333333333333337E-005     0.0000000000000000     
  -3.0133333333333335E-005     0.0000000000000000     
  -2.9933333333333334E-005     0.0000000000000000     
  -2.9733333333333336E-005     0.0000000000000000     
  -2.9533333333333334E-005     0.0000000000000000     
  -2.9333333333333336E-005     0.0000000000000000     
  -2.9133333333333334E-005     0.0000000000000000     
  -2.8933333333333336E-005     0.0000000000000000     
  -2.8733333333333335E-005     0.0000000000000000     
  -2.8533333333333333E-005     0.0000000000000000     
  -2.8333333333333335E-005     0.0000000000000000     
  -2.8133333333333337E-005     0.0000000000000000     
  -2.7933333333333336E-005     0.0000000000000000     
  -2.7733333333333334E-005     0.0000000000000000     
  -2.7533333333333336E-005     0.0000000000000000     
  -2.7333333333333335E-005     0.0000000000000000     
  -2.7133333333333333E-005     0.0000000000000000     
  -2.6933333333333335E-005     0.0000000000000000     
  -2.6733333333333337E-005     0.0000000000000000     
  -2.6533333333333336E-005    -6.8901581534132026E-040
  -2.6333333333333334E-005    -5.7823513144350831E-039
  -2.6133333333333336E-005    -1.7112520540078275E-038
  -2.5933333333333335E-005    -3.6953302841971371E-038
  -2.5733333333333333E-005    -4.3984720526473598E-038
  -2.5533333333333335E-005     1.6947187783972828E-038
  -2.5333333333333337E-005     3.2538936570708981E-037
  -2.5133333333333336E-005     1.1723589055358722E-036
  -2.4933333333333334E-005     2.8593101771745367E-036
  -2.4733333333333336E-005     5.0842600541348922E-036
  -2.4533333333333334E-005     5.3908168397773759E-036
  -2.4333333333333333E-005    -3.5620960119106971E-036
  -2.4133333333333335E-005    -3.6817598055433124E-035
  -2.3933333333333337E-005    -1.1555579510391129E-034
  -2.3733333333333335E-005    -2.5079148622573780E-034
  -2.3533333333333334E-005    -3.9599113229211902E-034
  -2.3333333333333336E-005    -3.5458291541365811E-034
  -2.3133333333333338E-005     3.4336564482618986E-034
  -2.2933333333333336E-005     2.5021100963632759E-033
  -2.2733333333333335E-005     7.0208775267330960E-033
  -2.2533333333333337E-005     1.3939855990411145E-032
  -2.2333333333333335E-005     2.0297424217041445E-032
  -2.2133333333333334E-005     1.6706163511406515E-032
  -2.1933333333333336E-005    -1.6136631240586587E-032
  -2.1733333333333338E-005    -1.0713339268351730E-031
  -2.1533333333333336E-005    -2.8302381422401600E-031
  -2.1333333333333335E-005    -5.3450314774470185E-031
  -2.1133333333333337E-005    -7.5181486721845168E-031
  -2.0933333333333335E-005    -6.3646373995938655E-031
  -2.0733333333333334E-005     3.6824204663005851E-031
  -2.0533333333333336E-005     3.0257152982989055E-030
  -2.0333333333333337E-005     7.9643711328788595E-030
  -2.0133333333333336E-005     1.4849627366131584E-029
  -1.9933333333333334E-005     2.0977451663803421E-029
  -1.9733333333333336E-005     1.9550419513467539E-029
  -1.9533333333333335E-005    -1.4106558368580620E-030
  -1.9333333333333333E-005    -5.7592043099497171E-029
  -1.9133333333333335E-005    -1.6153536261679824E-028
  -1.8933333333333337E-005    -3.0763024676460286E-028
  -1.8733333333333336E-005    -4.4842586384360459E-028
  -1.8533333333333334E-005    -4.6760106762094686E-028
  -1.8333333333333336E-005    -1.6499324399732764E-028
  -1.8133333333333335E-005     7.1838250063425103E-028
  -1.7933333333333337E-005     2.3981362814001798E-027
  -1.7733333333333335E-005     4.8347386088966543E-027
  -1.7533333333333337E-005     7.4131590287651003E-027
  -1.7333333333333336E-005     8.5896949933895107E-027
  -1.7133333333333334E-005     5.6987126879883582E-027
  -1.6933333333333336E-005    -4.7552358924382119E-027
  -1.6733333333333335E-005    -2.5912857768881510E-026
  -1.6533333333333337E-005    -5.8156484188244688E-026
  -1.6333333333333335E-005    -9.5536617617317117E-026
  -1.6133333333333337E-005    -1.2184736870438361E-025
  -1.5933333333333336E-005    -1.0829769563850589E-025
  -1.5733333333333334E-005    -1.5927359463040094E-026
  -1.5533333333333336E-005     1.9343551677677865E-025
  -1.5333333333333334E-005     5.3473002529215919E-025
  -1.5133333333333336E-005     9.6618479284757629E-025
  -1.4933333333333335E-005     1.3518497499781494E-024
  -1.4733333333333337E-005     1.4364676630022441E-024
  -1.4533333333333335E-005     8.5855175691697513E-025
  -1.4333333333333337E-005    -7.6756701059426671E-025
  -1.4133333333333336E-005    -3.6766339409124241E-024
  -1.3933333333333334E-005    -7.6856574240366792E-024
  -1.3733333333333336E-005    -1.1884825469499801E-023
  -1.3533333333333335E-005    -1.4402022304659642E-023
  -1.3333333333333337E-005    -1.2424291273571706E-023
  -1.3133333333333335E-005    -2.6954498242374616E-024
  -1.2933333333333337E-005     1.7331216034411799E-023
  -1.2733333333333336E-005     4.7667023101536543E-023
  -1.2533333333333338E-005     8.3574134113550349E-023
  -1.2333333333333336E-005     1.1366816978219074E-022
  -1.2133333333333335E-005     1.1947121291320612E-022
  -1.1933333333333337E-005     7.7799672876966045E-023
  -1.1733333333333335E-005    -3.2811115376469193E-023
  -1.1533333333333337E-005    -2.2130994348546273E-022
  -1.1333333333333336E-005    -4.7030010744926361E-022
  -1.1133333333333337E-005    -7.2286299770232616E-022
  -1.0933333333333336E-005    -8.7619713063023621E-022
  -1.0733333333333334E-005    -7.8986317628693722E-022
  -1.0533333333333336E-005    -3.1589900788262991E-022
  -1.0333333333333335E-005     6.4590218940069128E-022
  -1.0133333333333337E-005     2.0723836020558905E-021
  -9.9333333333333354E-006     3.7376524277427021E-021
  -9.7333333333333373E-006     5.1594357938868854E-021
  -9.5333333333333358E-006     5.6102845920427726E-021
  -9.3333333333333343E-006     4.2330056832794532E-021
  -9.1333333333333362E-006     2.8447715835951105E-022
  -8.9333333333333348E-006    -6.5025840279143704E-021
  -8.7333333333333367E-006    -1.5502758523951283E-020
  -8.5333333333333352E-006    -2.4849809431488784E-020
  -8.3333333333333371E-006    -3.1332298874949950E-020
  -8.1333333333333356E-006    -3.0723877295347711E-020
  -7.9333333333333376E-006    -1.8692805345863956E-020
  -7.7333333333333361E-006     7.6923250237288329E-021
  -7.5333333333333346E-006     4.8052272951609798E-020
  -7.3333333333333365E-006     9.6832555636646204E-020
  -7.1333333333333351E-006     1.4217773602254680E-019
  -6.9333333333333370E-006     1.6636775990258393E-019
  -6.7333333333333355E-006     1.4854890997739905E-019
  -6.5333333333333374E-006     7.0093676817134680E-020
  -6.3333333333333359E-006    -7.7806130969645656E-020
  -6.1333333333333379E-006    -2.8568880165995225E-019
  -5.9333333333333364E-006    -5.1891191741956746E-019
  -5.7333333333333349E-006    -7.1541441611049112E-019
  -5.5333333333333368E-006    -7.9133761423263972E-019
  -5.3333333333333354E-006    -6.5671009645372809E-019
  -5.1333333333333373E-006    -2.4120393345520307E-019
  -4.9333333333333358E-006     4.7330420365263134E-019
  -4.7333333333333377E-006     1.4204215039702684E-018
  -4.5333333333333362E-006     2.4275495923146302E-018
  -4.3333333333333348E-006     3.2167519404737587E-018
  -4.1333333333333367E-006     3.4386293103417648E-018
  -3.9333333333333352E-006     2.7442151626724694E-018
  -3.7333333333333371E-006     8.9048395158991477E-019
  -3.5333333333333356E-006    -2.1371790701654619E-018
  -3.3333333333333376E-006    -6.0146779554569651E-018
  -3.1333333333333361E-006    -1.0019291950902240E-017
  -2.9333333333333346E-006    -1.3059825145289712E-017
  -2.7333333333333365E-006    -1.3826849562821081E-017
  -2.5333333333333384E-006    -1.1070640656562672E-017
  -2.3333333333333336E-006    -3.9806881450409910E-018
  -2.1333333333333355E-006     7.3989709693425965E-018
  -1.9333333333333374E-006     2.1820818661538109E-017
  -1.7333333333333393E-006     3.6675257178870172E-017
  -1.5333333333333345E-006     4.8141607689417415E-017
  -1.3333333333333364E-006     5.1728521255801332E-017
  -1.1333333333333383E-006     4.3207705028625467E-017
  -9.3333333333333343E-007     1.9840177149663690E-017
  -7.3333333333333535E-007    -1.8321011689555846E-017
  -5.3333333333333726E-007    -6.7366095800137979E-017
  -3.3333333333333918E-007    -1.1906666077338029E-016
  -1.3333333333333432E-007    -1.6135345048698981E-016
   6.6666666666663770E-008    -1.7994665413046296E-016
   2.6666666666666185E-007    -1.6113157218843276E-016
   4.6666666666666672E-007    -9.5381732411589664E-017
   6.6666666666666480E-007     1.8780060186217441E-017
   8.6666666666666289E-007     1.7155229658022933E-016
   1.0666666666666610E-006     3.4025743520737240E-016
   1.2666666666666658E-006     4.9030595034047544E-016
   1.4666666666666639E-006     5.7933481911528876E-016
   1.6666666666666620E-006     5.6457487278229519E-016
   1.8666666666666669E-006     4.1275836399198158E-016
   2.0666666666666649E-006     1.1107127393183088E-016
   2.2666666666666630E-006    -3.2304941524707745E-016
   2.4666666666666611E-006    -8.3588813554918997E-016
   2.6666666666666660E-006    -1.3377496193304756E-015
   2.8666666666666641E-006    -1.7114951604770824E-015
   3.0666666666666622E-006    -1.8299650051477514E-015
   3.2666666666666602E-006    -1.5811569161513151E-015
   3.4666666666666651E-006    -8.9797489154389761E-016
   3.6666666666666632E-006     2.1259481666656696E-016
   3.8666666666666613E-006     1.6474540264320577E-015
   4.0666666666666661E-006     3.1995004448087958E-015
   4.2666666666666642E-006     4.5699075989514435E-015
   4.4666666666666623E-006     5.4040690191886791E-015
   4.6666666666666604E-006     5.3506592474034953E-015
   4.8666666666666652E-006     4.1381281824669601E-015
   5.0666666666666633E-006     1.6575069529592375E-015
   5.2666666666666614E-006    -1.9642981587566175E-015
   5.4666666666666663E-006    -6.3192489279755586E-015
   5.6666666666666644E-006    -1.0719043431758962E-014
   5.8666666666666624E-006    -1.4255728780626358E-014
   6.0666666666666605E-006    -1.5926967930706024E-014
   6.2666666666666654E-006    -1.4818508424063398E-014
   6.4666666666666635E-006    -1.0321957594334131E-014
   6.6666666666666616E-006    -2.3520130646115992E-015
   6.8666666666666664E-006     8.4830530267696287E-015
   7.0666666666666645E-006     2.0807206408553530E-014
   7.2666666666666626E-006     3.2541972532033781E-014
   7.4666666666666607E-006     4.1136899023888556E-014
   7.6666666666666655E-006     4.3962774385592852E-014
   7.8666666666666636E-006     3.8829861378972802E-014
   8.0666666666666617E-006     2.4556393579593005E-014
   8.2666666666666598E-006     1.4816892577789424E-015
   8.4666666666666647E-006    -2.8198043675205519E-014
   8.6666666666666627E-006    -6.0387650157045964E-014
   8.8666666666666608E-006    -8.9428809978653263E-014
   9.0666666666666657E-006    -1.0883948320054834E-013
   9.2666666666666638E-006    -1.1240402990931770E-013
   9.4666666666666619E-006    -9.5474535292935476E-014
   9.6666666666666599E-006    -5.6266267530235211E-014
   9.8666666666666648E-006     3.1191890880510934E-015
   1.0066666666666663E-005     7.6213614986199993E-014
   1.0266666666666661E-005     1.5246264904432410E-013
   1.0466666666666666E-005     2.1837459683154902E-013
   1.0666666666666664E-005     2.5948876954954926E-013
   1.0866666666666662E-005     2.6293560651798640E-013
   1.1066666666666660E-005     2.2019462743693910E-013
   1.1266666666666665E-005     1.2953973684100698E-013
   1.1466666666666663E-005    -2.3689707339481993E-015
   1.1666666666666661E-005    -1.6021107230505255E-013
   1.1866666666666666E-005    -3.2132509990043864E-013
   1.2066666666666664E-005    -4.5862003769193209E-013
   1.2266666666666662E-005    -5.4475572886824011E-013
   1.2466666666666660E-005    -5.5696539145543487E-013
   1.2666666666666665E-005    -4.8167731890722853E-013
   1.2866666666666663E-005    -3.1802506900601451E-013
   1.3066666666666661E-005    -7.9450609603258711E-014
   1.3266666666666666E-005     2.0709285418112295E-013
   1.3466666666666664E-005     5.0439261917461541E-013
   1.3666666666666662E-005     7.7023483804257091E-013
   1.3866666666666660E-005     9.6377220293099101E-013
   1.4066666666666665E-005     1.0518157985495205E-012
   1.4266666666666663E-005     1.0138249003230785E-012
   1.4466666666666661E-005     8.4462155265933092E-013
   1.4666666666666666E-005     5.5436640518841116E-013
   1.4866666666666664E-005     1.6600221236731311E-013
   1.5066666666666662E-005    -2.8895884067418721E-013
   1.5266666666666661E-005    -7.7494470638964895E-013
   1.5466666666666665E-005    -1.2556444142985405E-012
   1.5666666666666663E-005    -1.6949878758016529E-012
   1.5866666666666662E-005    -2.0554132029498495E-012
   1.6066666666666660E-005    -2.2941478298324726E-012
   1.6266666666666665E-005    -2.3593698646147973E-012
   1.6466666666666663E-005    -2.1889693502205573E-012
   1.6666666666666661E-005    -1.7148234501447325E-012
   1.6866666666666666E-005    -8.7478621857225249E-013
   1.7066666666666664E-005     3.6711187298600697E-013
   1.7266666666666662E-005     1.9942844591814495E-012
   1.7466666666666660E-005     3.9099590299726632E-012
   1.7666666666666665E-005     5.9157788847193829E-012
   1.7866666666666663E-005     7.7055633894691891E-012
   1.8066666666666661E-005     8.8826679712457606E-012
   1.8266666666666666E-005     9.0065377983734928E-012
   1.8466666666666664E-005     7.6687370706792364E-012
   1.8666666666666662E-005     4.5915858951488279E-012
   1.8866666666666660E-005    -2.6532463172021822E-013
   1.9066666666666665E-005    -6.6122955041767393E-012
   1.9266666666666663E-005    -1.3775800929209230E-011
   1.9466666666666661E-005    -2.0708491191761734E-011
   1.9666666666666666E-005    -2.6080795568000688E-011
   1.9866666666666664E-005    -2.8459280146660624E-011
   2.0066666666666662E-005    -2.6559433639600929E-011
   2.0266666666666660E-005    -1.9540958961350489E-011
   2.0466666666666665E-005    -7.2957188123958561E-012
   2.0666666666666663E-005     9.3333547113872279E-012
   2.0866666666666661E-005     2.8465714745021771E-011
   2.1066666666666659E-005     4.7280877314429497E-011
   2.1266666666666664E-005     6.2326777439313168E-011
   2.1466666666666662E-005     7.0028236380487578E-011
   2.1666666666666660E-005     6.7341069976255116E-011
   2.1866666666666665E-005     5.2454786944133644E-011
   2.2066666666666663E-005     2.5414449609522131E-011
   2.2266666666666661E-005    -1.1480597225288376E-011
   2.2466666666666659E-005    -5.3629711767336843E-011
   2.2666666666666664E-005    -9.4521253479918811E-011
   2.2866666666666662E-005    -1.2657585424293784E-010
   2.3066666666666660E-005    -1.4237037648056669E-010
   2.3266666666666665E-005    -1.3607902943801877E-010
   2.3466666666666663E-005    -1.0489067887746429E-010
   2.3666666666666661E-005    -5.0118148620353698E-011
   2.3866666666666660E-005     2.2279828634482301E-011
   2.4066666666666664E-005     1.0198062341209077E-010
   2.4266666666666662E-005     1.7548154007860887E-010
   2.4466666666666661E-005     2.2812223308424310E-010
   2.4666666666666665E-005     2.4670347736053923E-010
   2.4866666666666663E-005     2.2229558678564430E-010
   2.5066666666666662E-005     1.5271766900467288E-010
   2.5266666666666660E-005     4.4138314682422246E-011
   2.5466666666666665E-005    -8.8675571113470084E-011
   2.5666666666666663E-005    -2.2375276746026909E-010
   2.5866666666666661E-005    -3.3497094656681926E-010
   2.6066666666666666E-005    -3.9645978736687637E-010
   2.6266666666666664E-005    -3.8772317555833508E-010
   2.6466666666666662E-005    -2.9859814940977811E-010
   2.6666666666666660E-005    -1.3304747569922466E-010
   2.6866666666666665E-005     8.9158949688914995E-011
   2.7066666666666663E-005     3.3356485685381236E-010
   2.7266666666666661E-005     5.5520812047258968E-010
   2.7466666666666666E-005     7.0556355900362727E-010
   2.7666666666666664E-005     7.4136116025592835E-010
   2.7866666666666662E-005     6.3388397801210966E-010
   2.8066666666666667E-005     3.7702717781319972E-010
   2.8266666666666658E-005    -7.6349082550216374E-012
   2.8466666666666663E-005    -4.7023120479410351E-010
   2.8666666666666668E-005    -9.3725633216415482E-010
   2.8866666666666659E-005    -1.3214615105052008E-009
   2.9066666666666664E-005    -1.5359169328770390E-009
   2.9266666666666669E-005    -1.5102325369566865E-009
   2.9466666666666660E-005    -1.2062169462665433E-009
   2.9666666666666665E-005    -6.2995685597574568E-010
   2.9866666666666656E-005     1.6245976642562300E-010
   3.0066666666666661E-005     1.0675576889712990E-009
   3.0266666666666666E-005     1.9461210366270672E-009
   3.0466666666666657E-005     2.6429763629374733E-009
   3.0666666666666662E-005     3.0123808298872558E-009
   3.0866666666666667E-005     2.9451048037175999E-009
   3.1066666666666658E-005     2.3924774168660878E-009
   3.1266666666666663E-005     1.3826223023543430E-009
   3.1466666666666668E-005     2.4955941450640075E-011
   3.1666666666666659E-005    -1.4992911076685231E-009
   3.1866666666666664E-005    -2.9604643510008865E-009
   3.2066666666666656E-005    -4.1151468135078491E-009
   3.2266666666666660E-005    -4.7470742828509701E-009
   3.2466666666666665E-005    -4.7075572614595586E-009
   3.2666666666666657E-005    -3.9480158612337043E-009
   3.2866666666666661E-005    -2.5378591379081463E-009
   3.3066666666666666E-005    -6.6292925573086990E-010
   3.3266666666666658E-005     1.3971951407362358E-009
   3.3466666666666662E-005     3.3110070009199229E-009
   3.3666666666666667E-005     4.7502123264804322E-009
   3.3866666666666659E-005     5.4493523191168060E-009
   3.4066666666666664E-005     5.2593237860229497E-009
   3.4266666666666668E-005     4.1842630297913026E-009
   3.4466666666666660E-005     2.3932966717255499E-009
   3.4666666666666665E-005     2.0248466527345630E-010
   3.4866666666666656E-005    -1.9726156934088487E-009
   3.5066666666666661E-005    -3.6878207283482369E-009
   3.5266666666666666E-005    -4.5536828800031093E-009
   3.5466666666666657E-005    -4.3169620535604428E-009
   3.5666666666666662E-005    -2.9247037836330624E-009
   3.5866666666666667E-005    -5.5706505668275215E-010
   3.6066666666666658E-005     2.3805794390819040E-009
   3.6266666666666663E-005     5.3091546827188002E-009
   3.6466666666666668E-005     7.5661735902548930E-009
   3.6666666666666659E-005     8.5223205039520768E-009
   3.6866666666666664E-005     7.7057669895441540E-009
   3.7066666666666669E-005     4.9123809499505754E-009
   3.7266666666666660E-005     2.8035137569838838E-010
   3.7466666666666665E-005    -5.6879793767509063E-009
   3.7666666666666656E-005    -1.2166513125842862E-008
   3.7866666666666661E-005    -1.8107336635730546E-008
   3.8066666666666666E-005    -2.2392605338857033E-008
   3.8266666666666657E-005    -2.4014991191687540E-008
   3.8466666666666662E-005    -2.2258499779341985E-008
   3.8666666666666667E-005    -1.6848987352684038E-008
   3.8866666666666658E-005    -8.0464658315970828E-009
   3.9066666666666663E-005     3.3410028326361621E-009
   3.9266666666666668E-005     1.6030219295151151E-008
   3.9466666666666659E-005     2.8416949566443032E-008
   3.9666666666666664E-005     3.8791635415849390E-008
   3.9866666666666655E-005     4.5585650062850490E-008
   4.0066666666666660E-005     4.7610241630267450E-008
   4.0266666666666665E-005     4.4249469709449659E-008
   4.0466666666666656E-005     3.5574267072334655E-008
   4.0666666666666661E-005     2.2356288648408520E-008
   4.0866666666666666E-005     5.9759951229388071E-009
   4.1066666666666657E-005    -1.1763316563941701E-008
   4.1266666666666662E-005    -2.8887828978115953E-008
   4.1466666666666667E-005    -4.3532330057134994E-008
   4.1666666666666658E-005    -5.4201129132908093E-008
   4.1866666666666663E-005    -5.9967789454478506E-008
   4.2066666666666668E-005    -6.0580260833418038E-008
   4.2266666666666660E-005    -5.6453392451065177E-008
   4.2466666666666664E-005    -4.8550060189221920E-008
   4.2666666666666656E-005    -3.8171448750325901E-008
   4.2866666666666661E-005    -2.6693534403357517E-008
   4.3066666666666665E-005    -1.5297263138397530E-008
   4.3266666666666657E-005    -4.7424649608179463E-009
   4.3466666666666662E-005     4.7705111438338275E-009
   4.3666666666666666E-005     1.3621466155781482E-008
   4.3866666666666658E-005     2.2662990843115667E-008
   4.4066666666666663E-005     3.2997093652069919E-008
   4.4266666666666667E-005     4.5668961427372089E-008
   4.4466666666666659E-005     6.1327730199481134E-008
   4.4666666666666664E-005     7.9913322129186857E-008
   4.4866666666666655E-005     1.0042849496159629E-007
   4.5066666666666660E-005     1.2084600766603092E-007
   4.5266666666666665E-005     1.3818341096269346E-007
   4.5466666666666656E-005     1.4875487982582747E-007
   4.5666666666666661E-005     1.4858419512647673E-007
   4.5866666666666666E-005     1.3393852919222196E-007
   4.6066666666666657E-005     1.0192336493958586E-007
   4.6266666666666662E-005     5.1066151812335057E-008
   4.6466666666666667E-005    -1.8187481148550945E-008
   4.6666666666666658E-005    -1.0313555479442151E-007
   4.6866666666666663E-005    -1.9869720415519485E-007
   4.7066666666666668E-005    -2.9754318425997163E-007
   4.7266666666666659E-005    -3.9049251161089102E-007
   4.7466666666666664E-005    -4.6716265746739242E-007
   4.7666666666666655E-005    -5.1683536502620438E-007
   4.7866666666666660E-005    -5.2947703287064874E-007
   4.8066666666666665E-005    -4.9683453970381374E-007
   4.8266666666666656E-005    -4.1351353793912837E-007
   4.8466666666666661E-005    -2.7793945452321044E-007
   4.8666666666666666E-005    -9.3100936101913430E-008
   4.8866666666666657E-005     1.3301797317680509E-007
   4.9066666666666662E-005     3.8739510010604307E-007
   4.9266666666666667E-005     6.5237352531207202E-007
   4.9466666666666658E-005     9.0653562182507474E-007
   4.9666666666666663E-005     1.1260376636132239E-006
   4.9866666666666655E-005     1.2863508151362106E-006
   5.0066666666666659E-005     1.3643117291635312E-006
   5.0266666666666664E-005     1.3403445177520508E-006
   5.0466666666666656E-005     1.2006805407012731E-006
   5.0666666666666660E-005     9.3937856223107060E-007
   5.0866666666666665E-005     5.5994037321046603E-007
   5.1066666666666657E-005     7.6327003120629592E-008
   5.1266666666666661E-005    -4.8678791774760266E-007
   5.1466666666666666E-005    -1.0946445626486984E-006
   5.1666666666666658E-005    -1.7039516466198069E-006
   5.1866666666666662E-005    -2.2653440259535233E-006
   5.2066666666666667E-005    -2.7266397585102381E-006
   5.2266666666666659E-005    -3.0367143691397647E-006
   5.2466666666666664E-005    -3.1497456824599779E-006
   5.2666666666666655E-005    -3.0295331674695295E-006
   5.2866666666666660E-005    -2.6535640799475090E-006
   5.3066666666666665E-005    -2.0164917124295517E-006
   5.3266666666666656E-005    -1.1327081189636857E-006
   5.3466666666666661E-005    -3.7724311118763195E-008
   5.3666666666666666E-005     1.2118694865465597E-006
   5.3866666666666657E-005     2.5400240131671044E-006
   5.4066666666666662E-005     3.8545033497663025E-006
   5.4266666666666667E-005     5.0517835070685030E-006
   5.4466666666666658E-005     6.0234427921788027E-006
   5.4666666666666663E-005     6.6637898116884904E-006
   5.4866666666666668E-005     6.8783510401124711E-006
   5.5066666666666659E-005     6.5927108715627701E-006
   5.5266666666666664E-005     5.7610922046745524E-006
   5.5466666666666655E-005     4.3739696810072332E-006
   5.5666666666666660E-005     2.4639471506234454E-006
   5.5866666666666665E-005     1.0915248660945922E-007
   5.6066666666666656E-005    -2.5665518611671640E-006
   5.6266666666666661E-005    -5.3970687363432597E-006
   5.6466666666666666E-005    -8.1815781233380357E-006
   5.6666666666666657E-005    -1.0696056366441204E-005
   5.6866666666666662E-005    -1.2708400412432477E-005
   5.7066666666666667E-005    -1.3996386192203345E-005
   5.7266666666666658E-005    -1.4367270996930881E-005
   5.7466666666666663E-005    -1.3677520979820304E-005
   5.7666666666666654E-005    -1.1850917298717719E-005
   5.7866666666666659E-005    -8.8932038758428922E-006
   5.8066666666666664E-005    -4.9015173557294554E-006
   5.8266666666666655E-005    -6.7123720168705487E-008
   5.8466666666666660E-005     5.3295582850843924E-006
   5.8666666666666665E-005     1.0932062483281493E-005
   5.8866666666666656E-005     1.6328798334447161E-005
   5.9066666666666661E-005     2.1080752224064306E-005
   5.9266666666666666E-005     2.4754189271384153E-005
   5.9466666666666657E-005     2.6955979637734094E-005
   5.9666666666666662E-005     2.7368790692186391E-005
   5.9866666666666667E-005     2.5783136846064462E-005
   6.0066666666666659E-005     2.2123408912056699E-005
   6.0266666666666663E-005     1.6465304504333270E-005
   6.0466666666666655E-005     9.0426932134872766E-006
   6.0666666666666660E-005     2.4268072646014894E-007
   6.0866666666666664E-005    -9.4114329226062367E-006
   6.1066666666666656E-005    -1.9288709542477388E-005
   6.1266666666666661E-005    -2.8689091411082760E-005
   6.1466666666666665E-005    -3.6889590072613071E-005
   6.1666666666666657E-005    -4.3195161654374303E-005
   6.1866666666666662E-005    -4.6990867753516526E-005
   6.2066666666666666E-005    -4.7791769381088912E-005
   6.2266666666666658E-005    -4.5286934557708327E-005
   6.2466666666666663E-005    -3.9374290708143260E-005
   6.2666666666666668E-005    -3.0183429213295845E-005
   6.2866666666666659E-005    -1.8084166309520068E-005
   6.3066666666666664E-005    -3.6793417876185896E-006
   6.3266666666666655E-005     1.2218671328869811E-005
   6.3466666666666660E-005     2.8627457327731531E-005
   6.3666666666666665E-005     4.4448635704491548E-005
   6.3866666666666656E-005     5.8534152860526380E-005
   6.4066666666666661E-005     6.9761465989756193E-005
   6.4266666666666666E-005     7.7113347598696441E-005
   6.4466666666666657E-005     7.9757386450803719E-005
   6.4666666666666662E-005     7.7119656226131342E-005
   6.4866666666666667E-005     6.8946924023890105E-005
   6.5066666666666658E-005     5.5351876776982173E-005
   6.5266666666666663E-005     3.6836463468224571E-005
   6.5466666666666654E-005     1.4289515226211486E-005
   6.5666666666666659E-005    -1.1043706032081509E-005
   6.5866666666666664E-005    -3.7620544878143523E-005
   6.6066666666666655E-005    -6.3686838756546300E-005
   6.6266666666666660E-005    -8.7385746310531513E-005
   6.6466666666666665E-005    -1.0688333156551914E-004
   6.6666666666666656E-005    -1.2050284935408132E-004
   6.6866666666666661E-005    -1.2685809067620001E-004
   6.7066666666666666E-005    -1.2497559731298701E-004
   6.7266666666666657E-005    -1.1439528893414914E-004
   6.7466666666666662E-005    -9.5240306170559950E-005
   6.7666666666666667E-005    -6.8248314732236368E-005
   6.7866666666666658E-005    -3.4759356662458543E-005
   6.8066666666666663E-005     3.3417350616838374E-006
   6.8266666666666655E-005     4.3726508719771218E-005
   6.8466666666666659E-005     8.3762693095198315E-005
   6.8666666666666664E-005     1.2068391103513875E-004
   6.8866666666666656E-005     1.5177812160324747E-004
   6.9066666666666660E-005     1.7458167175300239E-004
   6.9266666666666665E-005     1.8706481355413820E-004
   6.9466666666666657E-005     1.8779491351000988E-004
   6.9666666666666661E-005     1.7606467925602995E-004
   6.9866666666666666E-005     1.5197514552483274E-004
   7.0066666666666658E-005     1.1646624752609014E-004
   7.0266666666666662E-005     7.1291170444031412E-005
   7.0466666666666654E-005     1.8934867553487049E-005
   7.0666666666666659E-005    -3.7519377928817979E-005
   7.0866666666666664E-005    -9.4567898060822448E-005
   7.1066666666666655E-005    -1.4849841424064564E-004
   7.1266666666666660E-005    -1.9562349787543862E-004
   7.1466666666666665E-005    -2.3252105653402000E-004
   7.1666666666666656E-005    -2.5626756563506333E-004
   7.1866666666666661E-005    -2.6464929260063837E-004
   7.2066666666666666E-005    -2.5633804363547983E-004
   7.2266666666666657E-005    -2.3101929206063743E-004
   7.2466666666666662E-005    -1.8946293704577859E-004
   7.2666666666666667E-005    -1.3352986390747544E-004
   7.2866666666666658E-005    -6.6110011776664254E-005
   7.3066666666666663E-005     9.0077820268470374E-006
   7.3266666666666654E-005     8.7330832301949683E-005
   7.3466666666666659E-005     1.6391454954285350E-004
   7.3666666666666664E-005     2.3365944629020856E-004
   7.3866666666666655E-005     2.9163744494657186E-004
   7.4066666666666660E-005     3.3342829339916491E-004
   7.4266666666666665E-005     3.5544457800530693E-004
   7.4466666666666656E-005     3.5522235882253753E-004
   7.4666666666666661E-005     3.3165463359141649E-004
   7.4866666666666666E-005     2.8514714600773712E-004
   7.5066666666666657E-005     2.1767922283360771E-004
   7.5266666666666662E-005     1.3275853985639268E-004
   7.5466666666666653E-005     3.5264945559866266E-005