  -3.3333333333333335E-005     0.0000000000000000     
  -3.3133333333333337E-005     0.0000000000000000     
  -3.2933333333333332E-005     0.0000000000000000     
  -3.2733333333333334E-005     0.0000000000000000     
  -3.2533333333333336E-005     0.0000000000000000     
  -3.2333333333333338E-005     0.0000000000000000     
  -3.2133333333333333E-005     0.0000000000000000     
  -3.1933333333333335E-005     0.0000000000000000     
  -3.1733333333333337E-005     0.0000000000000000     
  -3.1533333333333332E-005     0.0000000000000000     
  -3.1333333333333334E-005    -2.3700944718395845E-029
  -3.1133333333333336E-005     3.3473759290450443E-026
  -3.0933333333333338E-005     6.1154016760989850E-025
  -3.0733333333333333E-005     5.5675217475566706E-024
  -3.0533333333333335E-005     3.3360936060065289E-023
  -3.0333333333333337E-005     1.4518867766454825E-022
  -3.0133333333333335E-005     4.7186536573855056E-022
  -2.9933333333333334E-005     1.0913765161465109E-021
  -2.9733333333333336E-005     1.2603217929027416E-021
  -2.9533333333333334E-005    -3.0711561453880715E-021
  -2.9333333333333336E-005    -2.4802433937290886E-020
  -2.9133333333333334E-005    -9.3853813477231204E-020
  -2.8933333333333336E-005    -2.6038610952481953E-019
  -2.8733333333333335E-005    -5.6933311917776253E-019
  -2.8533333333333333E-005    -9.5844563180863162E-019
  -2.8333333333333335E-005    -1.0155962169227546E-018
  -2.8133333333333337E-005     4.3655182684816054E-019
  -2.7933333333333336E-005     5.8106964332514732E-018
  -2.7733333333333334E-005     1.8826353068873794E-017
  -2.7533333333333336E-005     4.3214947779697044E-017
  -2.7333333333333335E-005     7.8608062991184860E-017
  -2.7133333333333333E-005     1.1224689883980692E-016
  -2.6933333333333335E-005     1.0669324914378780E-016
  -2.6733333333333337E-005    -1.2337866194638539E-017
  -2.6533333333333336E-005    -3.5729227297395317E-016
  -2.6333333333333334E-005    -1.0507702546545951E-015
  -2.6133333333333336E-005    -2.1454409891729545E-015
  -2.5933333333333335E-005    -3.4761990647232165E-015
  -2.5733333333333333E-005    -4.4568617220919764E-015
  -2.5533333333333335E-005    -3.8887928733197761E-015
  -2.5333333333333337E-005     7.4249279765694215E-017
  -2.5133333333333336E-005     9.5878834134771767E-015
  -2.4933333333333334E-005     2.6171097629715300E-014
  -2.4733333333333336E-005     4.9027560917036992E-014
  -2.4533333333333334E-005     7.2811622852771960E-014
  -2.4333333333333333E-005     8.5527811553788193E-014
  -2.4133333333333335E-005     6.7883100526178662E-014
  -2.3933333333333337E-005    -4.0809144867839698E-015
  -2.3733333333333335E-005    -1.5125801470294809E-013
  -2.3533333333333334E-005    -3.7781700669578799E-013
  -2.3333333333333336E-005    -6.5307890300243404E-013
  -2.3133333333333338E-005    -8.9394842460634840E-013
  -2.2933333333333336E-005    -9.5696319842020016E-013
  -2.2733333333333335E-005    -6.5197357950120442E-013
  -2.2533333333333337E-005     2.1096696884328110E-013
  -2.2333333333333335E-005     1.7361125170432675E-012
  -2.2133333333333334E-005     3.8259121860591409E-012
  -2.1933333333333336E-005     6.0619081271042991E-012
  -2.1733333333333338E-005     7.6318929526461324E-012
  -2.1533333333333336E-005     7.3680620464456602E-012
  -2.1333333333333335E-005     3.9594465439757103E-012
  -2.1133333333333337E-005    -3.6267581559775810E-012
  -2.0933333333333335E-005    -1.5541912170994838E-011
  -2.0733333333333334E-005    -3.0387089615264259E-011
  -2.0533333333333336E-005    -4.4693733100308438E-011
  -2.0333333333333337E-005    -5.2843418369226029E-011
  -2.0133333333333336E-005    -4.7724336400986626E-011
  -1.9933333333333334E-005    -2.2323475470297017E-011
  -1.9733333333333336E-005     2.7771713461563316E-011
  -1.9533333333333335E-005     1.0132595870167026E-010
  -1.9333333333333333E-005     1.8860914133121043E-010
  -1.9133333333333335E-005     2.6981320897660646E-010
  -1.8933333333333337E-005     3.1590532832155430E-010
  -1.8733333333333336E-005     2.9285266199796351E-010
  -1.8533333333333334E-005     1.6950292675965076E-010
  -1.8333333333333336E-005    -7.1636339645642448E-011
  -1.8133333333333335E-005    -4.2271935226310635E-010
  -1.7933333333333337E-005    -8.4111638137092044E-010
  -1.7733333333333335E-005    -1.2459401115048051E-009
  -1.7533333333333337E-005    -1.5239753942544305E-009
  -1.7333333333333336E-005    -1.5469730229836809E-009
  -1.7133333333333334E-005    -1.1996539994566661E-009
  -1.6933333333333336E-005    -4.1446115594300380E-010
  -1.6733333333333335E-005     7.9419791715951663E-010
  -1.6533333333333337E-005     2.3056734948680253E-009
  -1.6333333333333335E-005     3.8883538678708725E-009
  -1.6133333333333337E-005     5.2214967088100579E-009
  -1.5933333333333336E-005     5.9451339551692834E-009
  -1.5733333333333334E-005     5.7322290665815921E-009
  -1.5533333333333336E-005     4.3695306643100812E-009
  -1.5333333333333334E-005     1.8278587930741668E-009
  -1.5133333333333336E-005    -1.6989012993590153E-009
  -1.4933333333333335E-005    -5.8024030861859141E-009
  -1.4733333333333337E-005    -9.9216765623030772E-009
  -1.4533333333333335E-005    -1.3448999367166773E-008
  -1.4333333333333337E-005    -1.5854590736352344E-008
  -1.4133333333333336E-005    -1.6793392790461605E-008
  -1.3933333333333334E-005    -1.6154343381313640E-008
  -1.3733333333333336E-005    -1.4023438173685727E-008
  -1.3533333333333335E-005    -1.0555566111230136E-008
  -1.3333333333333337E-005    -5.7836544588629894E-009
  -1.3133333333333335E-005     5.7025425695525914E-010
  -1.2933333333333337E-005     9.1918726082195842E-009
  -1.2733333333333336E-005     2.1085874801374801E-008
  -1.2533333333333338E-005     3.7233381480573042E-008
  -1.2333333333333336E-005     5.7991658331915668E-008
  -1.2133333333333335E-005     8.2318526287421849E-008
  -1.1933333333333337E-005     1.0700482897916864E-007
  -1.1733333333333335E-005     1.2617860560448628E-007
  -1.1533333333333337E-005     1.3138261523162173E-007
  -1.1333333333333336E-005     1.1248449055069185E-007
  -1.1133333333333337E-005     5.9551847888042422E-008
  -1.0933333333333336E-005    -3.4389016340649768E-008
  -1.0733333333333334E-005    -1.7006593778206887E-007
  -1.0533333333333336E-005    -3.3877144419732671E-007
  -1.0333333333333335E-005    -5.2011077745121903E-007
  -1.0133333333333337E-005    -6.8159594988516678E-007
  -9.9333333333333354E-006    -7.8087377246483448E-007
  -9.7333333333333373E-006    -7.7102448950425619E-007
  -9.5333333333333358E-006    -6.0881046686087098E-007
  -9.3333333333333343E-006    -2.6507380057188409E-007
  -9.1333333333333362E-006     2.6423611693920716E-007
  -8.9333333333333348E-006     9.4849478686236365E-007
  -8.7333333333333367E-006     1.7166843087510394E-006
  -8.5333333333333352E-006     2.4577826247202762E-006
  -8.3333333333333371E-006     3.0289297132499082E-006
  -8.1333333333333356E-006     3.2719573160893289E-006
  -7.9333333333333376E-006     3.0374357773563633E-006
  -7.7333333333333361E-006     2.2137943616167993E-006
  -7.5333333333333346E-006     7.5756914832846885E-007
  -7.3333333333333365E-006    -1.2803109896842233E-006
  -7.1333333333333351E-006    -3.7377012491973667E-006
  -6.9333333333333370E-006    -6.3390332300061878E-006
  -6.7333333333333355E-006    -8.7114185357787665E-006
  -6.5333333333333374E-006    -1.0420550265713331E-005
  -6.3333333333333359E-006    -1.1024870538198082E-005
  -6.1333333333333379E-006    -1.0143157393583051E-005
  -5.9333333333333364E-006    -7.5275620769991810E-006
  -5.7333333333333349E-006    -3.1316336470051478E-006
  -5.5333333333333368E-006     2.8383085823299587E-006
  -5.3333333333333354E-006     9.8996755774251158E-006
  -5.1333333333333373E-006     1.7306852544916462E-005
  -4.9333333333333358E-006     2.4105955852672865E-005
  -4.7333333333333377E-006     2.9230179497802577E-005
  -4.5333333333333362E-006     3.1628514081176801E-005
  -4.3333333333333348E-006     3.0414344000821898E-005
  -4.1333333333333367E-006     2.5015409100533835E-005
  -3.9333333333333352E-006     1.5303882339555751E-005
  -3.7333333333333371E-006     1.6854579042649349E-006
  -3.5333333333333356E-006    -1.4870252603078461E-005
  -3.3333333333333376E-006    -3.2869064805382306E-005
  -3.1333333333333361E-006    -5.0403687823359743E-005
  -2.9333333333333346E-006    -6.5329698220602819E-005
  -2.7333333333333365E-006    -7.5489459307934617E-005
  -2.5333333333333384E-006    -7.8959690837312392E-005
  -2.3333333333333336E-006    -7.4294891060236560E-005
  -2.1333333333333355E-006    -6.0738448268811868E-005
  -1.9333333333333374E-006    -3.8376949013416476E-005
  -1.7333333333333393E-006    -8.2200026820818101E-006
  -1.5333333333333345E-006     2.7803992122560678E-005
  -1.3333333333333364E-006     6.6937097534376652E-005
  -1.1333333333333383E-006     1.0575980005562074E-004
  -9.3333333333333343E-007     1.4042669561864249E-004
  -7.3333333333333535E-007     1.6695543813547993E-004
  -5.3333333333333726E-007     1.8155366296597510E-004
  -3.3333333333333918E-007     1.8096811192635219E-004
  -1.3333333333333432E-007     1.6283868264823097E-004
   6.6666666666663770E-008     1.2603717845029042E-004
   2.6666666666666185E-007     7.0966269178900033E-005
   4.6666666666666672E-007    -2.1264146371128114E-007
   6.6666666666666480E-007    -8.3458578678287973E-005
   8.6666666666666289E-007    -1.7287661791490176E-004
   1.0666666666666610E-006    -2.6092678463806093E-004
   1.2666666666666658E-006    -3.3884281660521650E-004
   1.4666666666666639E-006    -3.9726982187812091E-004
   1.6666666666666620E-006    -4.2710352474643572E-004
   1.8666666666666669E-006    -4.2048253011092924E-004
   2.0666666666666649E-006    -3.7185182429933601E-004
   2.2666666666666630E-006    -2.7898667453295841E-004
   2.4666666666666611E-006    -1.4384496000247618E-004
   2.6666666666666660E-006     2.6890838030398672E-005
   2.8666666666666641E-006     2.2170707801054618E-004
   3.0666666666666622E-006     4.2468605213836369E-004
   3.2666666666666602E-006     6.1650988534555924E-004
   3.4666666666666651E-006     7.7602382060341240E-004
   3.6666666666666632E-006     8.8226488379541815E-004
   3.8666666666666613E-006     9.1678753817311075E-004
   4.0666666666666661E-006     8.6605642381782570E-004
   4.2666666666666642E-006     7.2362933419280878E-004
   4.4666666666666623E-006     4.9183968444824948E-004
   4.6666666666666604E-006     1.8270853171966771E-004
   4.8666666666666652E-006    -1.8212324286812499E-004
   5.0666666666666633E-006    -5.7256234184585575E-004
   5.2666666666666614E-006    -9.5232190158061692E-004
   5.4666666666666663E-006    -1.2821361451806216E-003
   5.6666666666666644E-006    -1.5236529393309966E-003
   5.8666666666666624E-006    -1.6436255554646987E-003
   6.0666666666666605E-006    -1.6179439664224353E-003
   6.2666666666666654E-006    -1.4350289286640954E-003
   6.4666666666666635E-006    -1.0981523141262569E-003
   6.6666666666666616E-006    -6.2633853871985989E-004
   6.8666666666666664E-006    -5.3651816499427293E-005
   7.0666666666666645E-006     5.7315384873915173E-004
   7.2666666666666626E-006     1.1984557260912635E-003
   7.4666666666666607E-006     1.7627181356728227E-003
   7.6666666666666655E-006     2.2081099503023253E-003
   7.8666666666666636E-006     2.4842274902574439E-003
   8.0666666666666617E-006     2.5533432595776897E-003
   8.2666666666666598E-006     2.3946464817206034E-003
   8.4666666666666647E-006     2.0070385906146328E-003
   8.6666666666666627E-006     1.4101908677617543E-003
   8.8666666666666608E-006     6.4373753673513411E-004
   9.0666666666666657E-006    -2.3534122186456645E-004
   9.2666666666666638E-006    -1.1569370365636818E-003
   9.4666666666666619E-006    -2.0432731612970477E-003
   9.6666666666666599E-006    -2.8151638720629942E-003
   9.8666666666666648E-006    -3.3985543909039219E-003
   1.0066666666666663E-005    -3.7308340161242618E-003
   1.0266666666666661E-005    -3.7664195401440319E-003
   1.0466666666666666E-005    -3.4811972039518269E-003
   1.0666666666666664E-005    -2.8754737259689264E-003
   1.0866666666666662E-005    -1.9752228520441028E-003
   1.1066666666666660E-005    -8.3150856440934295E-004
   1.1266666666666665E-005     4.8191350045233001E-004
   1.1466666666666663E-005     1.8727030016899462E-003
   1.1666666666666661E-005     3.2355572129385253E-003
   1.1866666666666666E-005     4.4590503829678258E-003
   1.2066666666666664E-005     5.4333414586474928E-003
   1.2266666666666662E-005     6.0583229893623209E-003
   1.2466666666666660E-005     6.2517362434310591E-003
   1.2666666666666665E-005     5.9567327761801247E-003
   1.2866666666666663E-005     5.1483334179941252E-003
   1.3066666666666661E-005     3.8382434299099157E-003
   1.3266666666666666E-005     2.0774931184126266E-003
   1.3466666666666664E-005    -4.3528532288216902E-005
   1.3666666666666662E-005    -2.3979469672247415E-003
   1.3866666666666660E-005    -4.8283308416067231E-003
   1.4066666666666665E-005    -7.1555443038318562E-003
   1.4266666666666663E-005    -9.1901664669754024E-003
   1.4466666666666661E-005    -1.0745846840292188E-002
   1.4666666666666666E-005    -1.1653721681821971E-002
   1.4866666666666664E-005    -1.1776837229624686E-002
   1.5066666666666662E-005    -1.1023426670346434E-002
   1.5266666666666661E-005    -9.3578805870026122E-003
   1.5466666666666665E-005    -6.8083793787859417E-003
   1.5666666666666663E-005    -3.4703390893995635E-003
   1.5866666666666662E-005     4.9485313986248310E-004
   1.6066666666666660E-005     4.8660094031300113E-003
   1.6266666666666665E-005     9.3730390705939887E-003
   1.6466666666666663E-005     1.3712008256033172E-002
   1.6666666666666661E-005     1.7563512207322201E-002
   1.6866666666666666E-005     2.0613260791358806E-002
   1.7066666666666664E-005     2.2573546820893561E-002
   1.7266666666666662E-005     2.3204300208400676E-002
   1.7466666666666660E-005     2.2332356266299112E-002
   1.7666666666666665E-005     1.9867713196488418E-002
   1.7866666666666663E-005     1.5815707482263040E-002
   1.8066666666666661E-005     1.0284215445779409E-002
   1.8266666666666666E-005     3.4852951954267505E-003
   1.8466666666666664E-005    -4.2691598229492190E-003
   1.8666666666666662E-005    -1.2577845051533809E-002
   1.8866666666666660E-005    -2.0966464185531521E-002
   1.9066666666666665E-005    -2.8909761254370964E-002
   1.9266666666666663E-005    -3.5858559640923528E-002
   1.9466666666666661E-005    -4.1270912917796776E-002
   1.9666666666666666E-005    -4.4646057562796160E-002
   1.9866666666666664E-005    -4.5559761519949900E-002
   2.0066666666666662E-005    -4.3698984470120293E-002
   2.0266666666666660E-005    -3.8893720965197678E-002
   2.0466666666666665E-005    -3.1143497137186130E-002
   2.0666666666666663E-005    -2.0635974648801444E-002
   2.0866666666666661E-005    -7.7552094648821422E-003
   2.1066666666666659E-005     6.9224964535962510E-003
   2.1266666666666664E-005     2.2646515398007556E-002
   2.1466666666666662E-005     3.8524065263397515E-002
   2.1666666666666660E-005     5.3565931239504275E-002
   2.1866666666666665E-005     6.6743740330991952E-002
   2.2066666666666663E-005     7.7055717968510976E-002
   2.2266666666666661E-005     8.3596606015859359E-002
   2.2466666666666659E-005     8.5626763173749745E-002
   2.2666666666666664E-005     8.2635172289280218E-002
   2.2866666666666662E-005     7.4391045105287615E-002
   2.3066666666666660E-005     6.0979518530765282E-002
   2.3266666666666665E-005     4.2817900324224348E-002
   2.3466666666666663E-005     2.0650157198967102E-002
   2.3666666666666661E-005    -4.4806975214048382E-003
   2.3866666666666660E-005    -3.1281463832023890E-002
   2.4066666666666664E-005    -5.8276052598894193E-002
   2.4266666666666662E-005    -8.3887405329143100E-002
   2.4466666666666661E-005   -0.10652888932076135     
   2.4666666666666665E-005   -0.12469967693101461     
   2.4866666666666663E-005   -0.13707814816689845     
   2.5066666666666662E-005   -0.14260763355364028     
   2.5266666666666660E-005   -0.14056920192872213     
   2.5466666666666665E-005   -0.13063707915693262     
   2.5666666666666663E-005   -0.11291317172961574     
   2.5866666666666661E-005    -8.7938455791158915E-002
   2.6066666666666666E-005    -5.6680104651053970E-002
   2.6266666666666664E-005    -2.0494606776385017E-002
   2.6466666666666662E-005     1.8931612857020205E-002
   2.6666666666666660E-005     5.9661498821454703E-002
   2.6866666666666665E-005     9.9602458958023901E-002
   2.7066666666666663E-005    0.13661285015943317     
   2.7266666666666661E-005    0.16861418471891115     
   2.7466666666666666E-005    0.19370304975333591     
   2.7666666666666664E-005    0.21025673790028929     
   2.7866666666666662E-005    0.21702667894622860     
   2.8066666666666667E-005    0.21321443464826878     
   2.8266666666666658E-005    0.19852579574696613     
   2.8466666666666663E-005    0.17320008255035105     
   2.8666666666666668E-005    0.13801296153359446     
   2.8866666666666659E-005     9.4252693482139382E-002
   2.9066666666666664E-005     4.3671424008949453E-002
   2.9266666666666669E-005    -1.1586149600200782E-002
   2.9466666666666660E-005    -6.9072701731314828E-002
   2.9666666666666665E-005   -0.12614275828703828     
   2.9866666666666656E-005   -0.18006728024822988     
   3.0066666666666661E-005   -0.22815366511368293     
   3.0266666666666666E-005   -0.26786722714656552     
   3.0466666666666657E-005   -0.29694968611100797     
   3.0666666666666662E-005   -0.31353152921154237     
   3.0866666666666667E-005   -0.31623321462470277     
   3.1066666666666658E-005   -0.30425224523154576     
   3.1266666666666663E-005   -0.27743069177174440     
   3.1466666666666668E-005   -0.23629914525162066     
   3.1666666666666659E-005   -0.18209191135643379     
   3.1866666666666664E-005   -0.11672971603425436     
   3.2066666666666656E-005    -4.2766539076687843E-002
   3.2266666666666660E-005     3.6700483564909250E-002
   3.2466666666666665E-005    0.11815698007552593     
   3.2666666666666657E-005    0.19782876825882115     
   3.2866666666666661E-005    0.27186408497339071     
   3.3066666666666666E-005    0.33653036952359944     
   3.3266666666666658E-005    0.38841408976150898     
   3.3466666666666662E-005    0.42460989389951254     
   3.3666666666666667E-005    0.44288699901303230     
   3.3866666666666659E-005    0.44182076011640031     
   3.4066666666666664E-005    0.42088041656861602     
   3.4266666666666668E-005    0.38046762761279590     
   3.4466666666666660E-005    0.32190431664617042     
   3.4666666666666665E-005    0.24737182236258209     
   3.4866666666666656E-005    0.15980731411933149     
   3.5066666666666661E-005     6.2765675471474214E-002
   3.5266666666666666E-005    -3.9743176585157344E-002
   3.5466666666666657E-005   -0.14343131169433712     
   3.5666666666666662E-005   -0.24391517147287814     
   3.5866666666666667E-005   -0.33689498990279615     
   3.6066666666666658E-005   -0.41832545501458507     
   3.6266666666666663E-005   -0.48457353845816498     
   3.6466666666666668E-005   -0.53256095100944567     
   3.6666666666666659E-005   -0.55988887265580212     
   3.6866666666666664E-005   -0.56494389501943632     
   3.7066666666666669E-005   -0.54698192101893484     
   3.7266666666666660E-005   -0.50618635296322734     
   3.7466666666666665E-005   -0.44369661678676864     
   3.7666666666666656E-005   -0.36160050585477577     
   3.7866666666666661E-005   -0.26288607110572870     
   3.8066666666666666E-005   -0.15134886755428240     
   3.8266666666666657E-005    -3.1453493534322259E-002
   3.8466666666666662E-005     9.1848716137592795E-002
   3.8666666666666667E-005    0.21333897421535530     
   3.8866666666666658E-005    0.32777688977337649     
   3.9066666666666663E-005    0.43015903441158443     
   3.9266666666666668E-005    0.51597340516830403     
   3.9466666666666659E-005    0.58143221717729654     
   3.9666666666666664E-005    0.62366773772029660     
   3.9866666666666655E-005    0.64087638617417819     
   4.0066666666666660E-005    0.63240348903314125     
   4.0266666666666665E-005    0.59876312316359714     
   4.0466666666666656E-005    0.54159509294537622     
   4.0666666666666661E-005    0.46356452837667433     
   4.0866666666666666E-005    0.36821338075248095     
   4.1066666666666657E-005    0.25977612479955825     
   4.1266666666666662E-005    0.14297182161365551     
   4.1466666666666667E-005     2.2784719985057489E-002
   4.1666666666666658E-005    -9.5756119004717408E-002
   4.1866666666666663E-005   -0.20778956617007155     
   4.2066666666666668E-005   -0.30882126367632745     
   4.2266666666666660E-005   -0.39490344188752280     
   4.2466666666666664E-005   -0.46279220637392215     
   4.2666666666666656E-005   -0.51007856415581043     
   4.2866666666666661E-005   -0.53528957546021383     
   4.3066666666666665E-005   -0.53795648806824881     
   4.3266666666666657E-005   -0.51864481105632865     
   4.3466666666666662E-005   -0.47894296015279508     
   4.3666666666666666E-005   -0.42140696503565750     
   4.3866666666666658E-005   -0.34946090621968312     
   4.4066666666666663E-005   -0.26725520175909434     
   4.4266666666666667E-005   -0.17948896811384579     
   4.4466666666666659E-005    -9.1205823108699347E-002
   4.4666666666666664E-005    -7.5760952089740652E-003
   4.4866666666666655E-005     6.6319976191334895E-002
   4.5066666666666660E-005    0.12569261480583471     
   4.5266666666666665E-005    0.16621124298320916     
   4.5466666666666656E-005    0.18413073518845136     
   4.5666666666666661E-005    0.17636723140344290     
   4.5866666666666666E-005    0.14052174738326162     
   4.6066666666666657E-005     7.4855244765154760E-002
   4.6266666666666662E-005    -2.1775390819026130E-002
   4.6466666666666667E-005   -0.15000688204849622     
   4.6666666666666658E-005   -0.31006830409145070     
   4.6866666666666663E-005   -0.50187276182673379     
   4.7066666666666668E-005   -0.72508627030640871     
   4.7266666666666659E-005   -0.97916292673915883     
   4.7466666666666664E-005    -1.2633386174289318     
   4.7666666666666655E-005    -1.5765840970071836     
   4.7866666666666660E-005    -1.9175208412471583     
   4.8066666666666665E-005    -2.2843113882468167     
   4.8266666666666656E-005    -2.6745364753349588     
   4.8466666666666661E-005    -3.0850750832167204     
   4.8666666666666666E-005    -3.5120075389080965     
   4.8866666666666657E-005    -3.9505498912239698     
   4.9066666666666662E-005    -4.3950404700231402     
   4.9266666666666667E-005    -4.8389786165975792     
   4.9466666666666658E-005    -5.2751280690984936     
   4.9666666666666663E-005    -5.6956751576808600     
   4.9866666666666655E-005    -6.0924448458844624     
   5.0066666666666659E-005    -6.4571600977347323     
   5.0266666666666664E-005    -6.7817295279115459     
   5.0466666666666656E-005    -7.0585521270161351     
   5.0666666666666660E-005    -7.2808179989459028     
   5.0866666666666665E-005    -7.4427852228066529     
   5.1066666666666657E-005    -7.5400193908908850     
   5.1266666666666661E-005    -7.5695788122492891     
   5.1466666666666666E-005    -7.5301274595746737     
   5.1666666666666658E-005    -7.4219723952611165     
   5.1866666666666662E-005    -7.2470206044651677     
   5.2066666666666667E-005    -7.0086481404008376     
   5.2266666666666659E-005    -6.7114918464619766     
   5.2466666666666664E-005    -6.3611739753963352     
   5.2666666666666655E-005    -5.9639645115676245     
   5.2866666666666660E-005    -5.5264034109484950     
   5.3066666666666665E-005    -5.0548969580101755     
   5.3266666666666656E-005    -4.5553073612859132     
   5.3466666666666661E-005    -4.0325605279313530     
   5.3666666666666666E-005    -3.4902815006457306     
   5.3866666666666657E-005    -2.9304824604616257     
   5.4066666666666662E-005    -2.3533218299526224     
   5.4266666666666667E-005    -1.7569408321597972     
   5.4466666666666658E-005    -1.1373897202070875     
   5.4666666666666663E-005   -0.48865519287217207     
   5.4866666666666668E-005    0.19722051053361245     
   5.5066666666666659E-005    0.92992034838805315     
   5.5266666666666664E-005     1.7205518508745987     
   5.5466666666666655E-005     2.5812712428340827     
   5.5666666666666660E-005     3.5248537301597844     
   5.5866666666666665E-005     4.5642257033534595     
   5.6066666666666656E-005     5.7119858122062475     
   5.6266666666666661E-005     6.9799307888438449     
   5.6466666666666666E-005     8.3786153080751973     
   5.6666666666666657E-005     9.9169607455009920     
   5.6866666666666662E-005     11.601925680055430     
   5.7066666666666667E-005     13.438258575195178     
   5.7266666666666658E-005     15.428326534379931     
   5.7466666666666663E-005     17.572021321381921     
   5.7666666666666654E-005     19.866746595334227     
   5.7866666666666659E-005     22.307456050934594     
   5.8066666666666664E-005     24.886740768309423     
   5.8266666666666655E-005     27.594946752506214     
   5.8466666666666660E-005     30.420298524167329     
   5.8666666666666665E-005     33.349024885438538     
   5.8866666666666656E-005     36.365475534584618     
   5.9066666666666661E-005     39.452206561668568     
   5.9266666666666666E-005     42.590066793438858     
   5.9466666666666657E-005     45.758269258379613     
   5.9666666666666662E-005     48.934456843445489     
   5.9866666666666667E-005     52.094789037867542     
   6.0066666666666659E-005     55.214042862165712     
   6.0266666666666663E-005     58.265750258496794     
   6.0466666666666655E-005     61.222395450470074     
   6.0666666666666660E-005     64.055619553681368     
   6.0866666666666664E-005     66.736516091010273     
   6.1066666666666656E-005     69.235919945568057     
   6.1266666666666661E-005     71.524755024192302     
   6.1466666666666665E-005     73.574382892928696     
   6.1666666666666657E-005     75.356964991572553     
   6.1866666666666662E-005     76.845821163939746     
   6.2066666666666666E-005     78.015753160027558     
   6.2266666666666658E-005     78.843340260447917     
   6.2466666666666663E-005     79.307233121327343     
   6.2666666666666668E-005     79.388364456081845     
   6.2866666666666659E-005     79.070173837436613     
   6.3066666666666664E-005     78.338766018471475     
   6.3266666666666655E-005     77.183088357527055     
   6.3466666666666660E-005     75.595054563668910     
   6.3666666666666665E-005     73.569709477926466     
   6.3866666666666656E-005     71.105386904239509     
   6.4066666666666661E-005     68.203883315130724     
   6.4266666666666666E-005     64.870652129074045     
   6.4466666666666657E-005     61.115001232966193     
   6.4666666666666662E-005     56.950357303148508     
   6.4866666666666667E-005     52.394481853680929     
   6.5066666666666658E-005     47.469699479581791     
   6.5266666666666663E-005     42.203117068441841     
   6.5466666666666654E-005     36.626811403833308     
   6.5666666666666659E-005     30.777908430165503     
   6.5866666666666664E-005     24.698638059093735     
   6.6066666666666655E-005     18.436265614651671     
   6.6266666666666660E-005     12.042947178059094     
   6.6466666666666665E-005     5.5754512178472631     
   6.6666666666666656E-005   -0.90523404119904605     
   6.6866666666666661E-005    -7.3343937708675675     
   6.7066666666666666E-005    -13.644206995528856     
   6.7266666666666657E-005    -19.764465247496705     
   6.7466666666666662E-005    -25.623377668102286     
   6.7666666666666667E-005    -31.148476263258296     
   6.7866666666666658E-005    -36.267552897162581     
   6.8066666666666663E-005    -40.909687859573218     
   6.8266666666666655E-005    -45.006286142932971     
   6.8466666666666659E-005    -48.492148478289515     
   6.8666666666666664E-005    -51.306524193487519     
   6.8866666666666656E-005    -53.394176438197782     
   6.9066666666666660E-005    -54.706389578164547     
   6.9266666666666665E-005    -55.201937430856297     
   6.9466666666666657E-005    -54.847962000827913     
   6.9666666666666661E-005    -53.620793742426933     
   6.9866666666666666E-005    -51.506629679423853     
   7.0066666666666658E-005    -48.502096566389554     
   7.0266666666666662E-005    -44.614685831966476     
   7.0466666666666654E-005    -39.863035628259553     
   7.0666666666666659E-005    -34.277058721943654     
   7.0866666666666664E-005    -27.897958353107398     
   7.1066666666666655E-005    -20.778038140249549     
   7.1266666666666660E-005    -12.980468507886584     
   7.1466666666666665E-005    -4.5788358343723523     
   7.1666666666666656E-005     4.3433579302446681     
   7.1866666666666661E-005     13.693360295811289     
   7.2066666666666666E-005     23.369914110804764     
   7.2266666666666657E-005     33.264125649962644     
   7.2466666666666662E-005     43.260456145961278     
   7.2666666666666667E-005     53.237813799975207     
   7.2866666666666658E-005     63.070775652921881     
   7.3066666666666663E-005     72.630874462215388     
   7.3266666666666654E-005     81.788023455592608     
   7.3466666666666659E-005     90.411999353588882     
   7.3666666666666664E-005     98.373941949039704     
   7.3866666666666655E-005     105.54794592712221     
   7.4066666666666660E-005     111.81260435706845     
   7.4266666666666665E-005     117.05253483354633     
   7.4466666666666656E-005     121.15986252992700     
   7.4666666666666661E-005     124.03561633371149     
   7.4866666666666666E-005     125.59105840086514     
   7.5066666666666657E-005     125.74892639894236     
   7.5266666666666662E-005     124.44458866168839     
   7.5466666666666653E-005     121.62708347365859     