  -3.3333333333333335E-005     0.0000000000000000     
  -3.3133333333333337E-005     0.0000000000000000     
  -3.2933333333333332E-005     0.0000000000000000     
  -3.2733333333333334E-005     0.0000000000000000     
  -3.2533333333333336E-005     0.0000000000000000     
  -3.2333333333333338E-005     0.0000000000000000     
  -3.2133333333333333E-005     0.0000000000000000     
  -3.1933333333333335E-005     0.0000000000000000     
  -3.1733333333333337E-005     0.0000000000000000     
  -3.1533333333333332E-005     0.0000000000000000     
  -3.1333333333333334E-005     0.0000000000000000     
  -3.1133333333333336E-005     0.0000000000000000     
  -3.0933333333333338E-005     0.0000000000000000     
  -3.0733333333333333E-005     0.0000000000000000     
  -3.0533333333333335E-005     0.0000000000000000     
  -3.0333333333333337E-005     0.0000000000000000     
  -3.0133333333333335E-005     0.0000000000000000     
  -2.9933333333333334E-005     0.0000000000000000     
  -2.9733333333333336E-005     0.0000000000000000     
  -2.9533333333333334E-005     0.0000000000000000     
  -2.9333333333333336E-005     0.0000000000000000     
  -2.9133333333333334E-005     0.0000000000000000     
  -2.8933333333333336E-005     0.0000000000000000     
  -2.8733333333333335E-005     0.0000000000000000     
  -2.8533333333333333E-005     0.0000000000000000     
  -2.8333333333333335E-005     0.0000000000000000     
  -2.8133333333333337E-005     0.0000000000000000     
  -2.7933333333333336E-005     0.0000000000000000     
  -2.7733333333333334E-005     0.0000000000000000     
  -2.7533333333333336E-005     0.0000000000000000     
  -2.7333333333333335E-005     0.0000000000000000     
  -2.7133333333333333E-005     0.0000000000000000     
  -2.6933333333333335E-005     0.0000000000000000     
  -2.6733333333333337E-005     0.0000000000000000     
  -2.6533333333333336E-005     0.0000000000000000     
  -2.6333333333333334E-005     0.0000000000000000     
  -2.6133333333333336E-005     0.0000000000000000     
  -2.5933333333333335E-005     0.0000000000000000     
  -2.5733333333333333E-005     0.0000000000000000     
  -2.5533333333333335E-005     0.0000000000000000     
  -2.5333333333333337E-005     0.0000000000000000     
  -2.5133333333333336E-005     0.0000000000000000     
  -2.4933333333333334E-005     0.0000000000000000     
  -2.4733333333333336E-005     0.0000000000000000     
  -2.4533333333333334E-005     0.0000000000000000     
  -2.4333333333333333E-005     0.0000000000000000     
  -2.4133333333333335E-005     0.0000000000000000     
  -2.3933333333333337E-005     0.0000000000000000     
  -2.3733333333333335E-005     0.0000000000000000     
  -2.3533333333333334E-005     0.0000000000000000     
  -2.3333333333333336E-005     0.0000000000000000     
  -2.3133333333333338E-005     0.0000000000000000     
  -2.2933333333333336E-005     0.0000000000000000     
  -2.2733333333333335E-005     0.0000000000000000     
  -2.2533333333333337E-005     0.0000000000000000     
  -2.2333333333333335E-005     0.0000000000000000     
  -2.2133333333333334E-005     0.0000000000000000     
  -2.1933333333333336E-005     0.0000000000000000     
  -2.1733333333333338E-005     0.0000000000000000     
  -2.1533333333333336E-005     0.0000000000000000     
  -2.1333333333333335E-005     0.0000000000000000     
  -2.1133333333333337E-005     0.0000000000000000     
  -2.0933333333333335E-005     0.0000000000000000     
  -2.0733333333333334E-005     0.0000000000000000     
  -2.0533333333333336E-005     0.0000000000000000     
  -2.0333333333333337E-005     0.0000000000000000     
  -2.0133333333333336E-005     0.0000000000000000     
  -1.9933333333333334E-005     0.0000000000000000     
  -1.9733333333333336E-005     0.0000000000000000     
  -1.9533333333333335E-005     0.0000000000000000     
  -1.9333333333333333E-005     0.0000000000000000     
  -1.9133333333333335E-005    -1.0916517780827414E-040
  -1.8933333333333337E-005    -3.1981914608382101E-040
  -1.8733333333333336E-005    -5.8643831274748219E-040
  -1.8533333333333334E-005    -6.1032648582673793E-040
  -1.8333333333333336E-005     4.5919708744607659E-040
  -1.8133333333333335E-005    -3.5271941462268451E-039
  -1.7933333333333337E-005    -9.3749058134420708E-039
  -1.7733333333333335E-005    -1.4525087136658301E-038
  -1.7533333333333337E-005    -1.4978654510589606E-038
  -1.7333333333333336E-005     9.4891552722347487E-039
  -1.7133333333333334E-005     5.9161103885127060E-038
  -1.6933333333333336E-005     1.5326305042050101E-037
  -1.6733333333333335E-005     3.0272262124748334E-037
  -1.6533333333333337E-005     5.1259739284799548E-037
  -1.6333333333333335E-005     7.7025197962414145E-037
  -1.6133333333333337E-005     1.0083028564790314E-036
  -1.5933333333333336E-005     1.0870126297335672E-036
  -1.5733333333333334E-005     7.4666867487106883E-037
  -1.5533333333333336E-005    -4.2927220731415416E-037
  -1.5333333333333334E-005    -3.0478736118471715E-036
  -1.5133333333333336E-005    -7.9062389175758779E-036
  -1.4933333333333335E-005    -1.5923808921326507E-035
  -1.4733333333333337E-005    -2.7924720163519187E-035
  -1.4533333333333335E-005    -4.4172422079233509E-035
  -1.4333333333333337E-005    -6.3420994014094967E-035
  -1.4133333333333336E-005    -8.1112169604352620E-035
  -1.3933333333333334E-005    -8.6136226342035451E-035
  -1.3733333333333336E-005    -5.5471673124253281E-035
  -1.3533333333333335E-005     5.3614047907143624E-035
  -1.3333333333333337E-005     3.1255146132827907E-034
  -1.3133333333333335E-005     8.2653789814759369E-034
  -1.2933333333333337E-005     1.7233630144928809E-033
  -1.2733333333333336E-005     3.1029809797350337E-033
  -1.2533333333333338E-005     4.9134345946071056E-033
  -1.2333333333333336E-005     6.7148716802313615E-033
  -1.2133333333333335E-005     7.3130302366846346E-033
  -1.1933333333333337E-005     4.3104881802446287E-033
  -1.1733333333333335E-005    -6.2366794811401915E-033
  -1.1533333333333337E-005    -2.9647081626022766E-032
  -1.1333333333333336E-005    -7.1246736625710061E-032
  -1.1133333333333337E-005    -1.3292431760387880E-031
  -1.0933333333333336E-005    -2.0682944275247794E-031
  -1.0733333333333334E-005    -2.6619437806659040E-031
  -1.0533333333333336E-005    -2.5506953179718994E-031
  -1.0333333333333335E-005    -8.1852748758905919E-032
  -1.0133333333333337E-005     3.7442502510201840E-031
  -9.9333333333333354E-006     1.2322774910704506E-030
  -9.7333333333333373E-006     2.5367032314315515E-030
  -9.5333333333333358E-006     4.1411980408125209E-030
  -9.3333333333333343E-006     5.5527840366577417E-030
  -9.1333333333333362E-006     5.7825572548036270E-030
  -8.9333333333333348E-006     3.2903030852765240E-030
  -8.7333333333333367E-006    -3.8393831041765535E-030
  -8.5333333333333352E-006    -1.7324027545220026E-029
  -8.3333333333333371E-006    -3.7578122934014781E-029
  -8.1333333333333356E-006    -6.2074696835221021E-029
  -7.9333333333333376E-006    -8.3446370175407969E-029
  -7.7333333333333361E-006    -8.8012758305085110E-029
  -7.5333333333333346E-006    -5.5902806597447808E-029
  -7.3333333333333365E-006     3.5687545558144710E-029
  -7.1333333333333351E-006     2.0459135399779438E-028
  -6.9333333333333370E-006     4.5040547904420375E-028
  -6.7333333333333355E-006     7.3703826913791163E-028
  -6.5333333333333374E-006     9.7531610605462417E-028
  -6.3333333333333359E-006     1.0137507674264560E-027
  -6.1333333333333379E-006     6.4908825537771425E-028
  -5.9333333333333364E-006    -3.3049148605744097E-028
  -5.7333333333333349E-006    -2.0602112048665539E-027
  -5.5333333333333368E-006    -4.4730388521490507E-027
  -5.3333333333333354E-006    -7.1541767118334764E-027
  -5.1333333333333373E-006    -9.2221782707413802E-027
  -4.9333333333333358E-006    -9.3096296580898426E-027
  -4.7333333333333377E-006    -5.7323125930630938E-027
  -4.5333333333333362E-006     3.0739497327162695E-027
  -4.3333333333333348E-006     1.7820404927090595E-026
  -4.1333333333333367E-006     3.7409885828096503E-026
  -3.9333333333333352E-006     5.7979678740978224E-026
  -3.7333333333333371E-006     7.2329205388898945E-026
  -3.5333333333333356E-006     7.0246573021166909E-026
  -3.3333333333333376E-006     4.0258312658934692E-026
  -3.1333333333333361E-006    -2.6867049270578060E-026
  -2.9333333333333346E-006    -1.3299215011928533E-025
  -2.7333333333333365E-006    -2.6671741522178778E-025
  -2.5333333333333384E-006    -3.9845947331535320E-025
  -2.3333333333333336E-006    -4.7903117444453272E-025
  -2.1333333333333355E-006    -4.4458770124891044E-025
  -1.9333333333333374E-006    -2.3025483578768484E-025
  -1.7333333333333393E-006     2.0702070887907341E-025
  -1.5333333333333345E-006     8.5895909669699217E-025
  -1.3333333333333364E-006     1.6363882374532027E-024
  -1.1333333333333383E-006     2.3503253165245147E-024
  -9.3333333333333343E-007     2.7169648212235768E-024
  -7.3333333333333535E-007     2.3990835660323067E-024
  -5.3333333333333726E-007     1.0906470912236820E-024
  -3.3333333333333918E-007    -1.3600558408467404E-024
  -1.3333333333333432E-007    -4.8096842551359627E-024
   6.6666666666663770E-008    -8.7003015236069908E-024
   2.6666666666666185E-007    -1.2013770010013286E-023
   4.6666666666666672E-007    -1.3355856264599666E-023
   6.6666666666666480E-007    -1.1211127131127885E-023
   8.6666666666666289E-007    -4.3731638626298349E-024
   1.0666666666666610E-006     7.5021355979578685E-024
   1.2666666666666658E-006     2.3340095826753902E-023
   1.4666666666666639E-006     4.0268339848988081E-023
   1.6666666666666620E-006     5.3626039170466324E-023
   1.8666666666666669E-006     5.7546381218451432E-023
   2.0666666666666649E-006     4.6198542681666111E-023
   2.2666666666666630E-006     1.5603342405174962E-023
   2.4666666666666611E-006    -3.4285825846479803E-023
   2.6666666666666660E-006    -9.7766790365786155E-023
   2.8666666666666641E-006    -1.6251584373618217E-022
   3.0666666666666622E-006    -2.1033428320405995E-022
   3.2666666666666602E-006    -2.1997300706275784E-022
   3.4666666666666651E-006    -1.7204617259550254E-022
   3.6666666666666632E-006    -5.5414246787798721E-023
   3.8666666666666613E-006     1.2626722007204103E-022
   4.0666666666666661E-006     3.4968518999520445E-022
   4.2666666666666642E-006     5.7073684201245295E-022
   4.4666666666666623E-006     7.2882156858616880E-022
   4.6666666666666604E-006     7.5728210589822798E-022
   4.8666666666666652E-006     5.9920757301185318E-022
   5.0666666666666633E-006     2.2604386318586063E-022
   5.2666666666666614E-006    -3.4513886933159402E-022
   5.4666666666666663E-006    -1.0407657101033279E-021
   5.6666666666666644E-006    -1.7310514988975764E-021
   5.8666666666666624E-006    -2.2446200275067767E-021
   6.0666666666666605E-006    -2.3976837547198139E-021
   6.2666666666666654E-006    -2.0343691329713044E-021
   6.4666666666666635E-006    -1.0712068222985142E-021
   6.6666666666666616E-006     4.6364144613511805E-022
   6.8666666666666664E-006     2.4064009619911437E-021
   7.0666666666666645E-006     4.4571109721256908E-021
   7.2666666666666626E-006     6.2067548637283611E-021
   7.4666666666666607E-006     7.1913099329227163E-021
   7.6666666666666655E-006     6.9669541338143342E-021
   7.8666666666666636E-006     5.1970957099564699E-021
   8.0666666666666617E-006     1.7403484249700827E-021
   8.2666666666666598E-006    -3.2710698339565602E-021
   8.4666666666666647E-006    -9.3721740892340624E-021
   8.6666666666666627E-006    -1.5735171102623879E-020
   8.8666666666666608E-006    -2.1181327878516946E-020
   9.0666666666666657E-006    -2.4252772361926742E-020
   9.2666666666666638E-006    -2.3367350906755628E-020
   9.4666666666666619E-006    -1.7079151275551454E-020
   9.6666666666666599E-006    -4.4548508611687349E-021
   9.8666666666666648E-006     1.4454443155574831E-020
   1.0066666666666663E-005     3.8115195288573869E-020
   1.0266666666666661E-005     6.3117227731185326E-020
   1.0466666666666666E-005     8.4068411264255633E-020
   1.0666666666666664E-005     9.3986664454694594E-020
   1.0866666666666662E-005     8.5361036740606691E-020
   1.1066666666666660E-005     5.1933390205929415E-020
   1.1266666666666665E-005    -8.9539884008349075E-021
   1.1466666666666663E-005    -9.3866811533812212E-020
   1.1666666666666661E-005    -1.9133106332968265E-019
   1.1866666666666666E-005    -2.8129066986368395E-019
   1.2066666666666664E-005    -3.3680961000640565E-019
   1.2266666666666662E-005    -3.2855393768351183E-019
   1.2466666666666660E-005    -2.3197516817169292E-019
   1.2666666666666665E-005    -3.6251337109928111E-020
   1.2866666666666663E-005     2.4690354922682440E-019
   1.3066666666666661E-005     5.7721187110710594E-019
   1.3266666666666666E-005     8.8549997515623617E-019
   1.3466666666666664E-005     1.0814530237911563E-018
   1.3666666666666662E-005     1.0703950128787556E-018
   1.3866666666666660E-005     7.7774239265985096E-019
   1.4066666666666665E-005     1.7701764266406628E-019
   1.4266666666666663E-005    -6.8524511624482777E-019
   1.4466666666666661E-005    -1.6758916809693341E-018
   1.4666666666666666E-005    -2.5806827691480393E-018
   1.4866666666666664E-005    -3.1340805959914080E-018
   1.5066666666666662E-005    -3.0732458849556624E-018
   1.5266666666666661E-005    -2.2093508137802637E-018
   1.5466666666666665E-005    -5.0219657592314676E-019
   1.5666666666666663E-005     1.8812865947926015E-018
   1.5866666666666662E-005     4.5457019878659682E-018
   1.6066666666666660E-005     6.9002666127723013E-018
   1.6266666666666665E-005     8.2538050217018923E-018
   1.6466666666666663E-005     7.9644697476699791E-018
   1.6666666666666661E-005     5.6200485104765000E-018
   1.6866666666666666E-005     1.2096618286963483E-018
   1.7066666666666664E-005    -4.7608600546719373E-018
   1.7266666666666662E-005    -1.1255454050035460E-017
   1.7466666666666660E-005    -1.6826653678921813E-017
   1.7666666666666665E-005    -1.9870177181804753E-017
   1.7866666666666663E-005    -1.8983956465723902E-017
   1.8066666666666661E-005    -1.3365405323771797E-017
   1.8266666666666666E-005    -3.1551598613268112E-018
   1.8466666666666664E-005     1.0371831038824950E-017
   1.8666666666666662E-005     2.4850122283090087E-017
   1.8866666666666660E-005     3.7142842321565362E-017
   1.9066666666666665E-005     4.3915444907170498E-017
   1.9266666666666663E-005     4.2375760619800997E-017
   1.9466666666666661E-005     3.1033699332021115E-017
   1.9666666666666666E-005     1.0302226151909768E-017
   1.9866666666666664E-005    -1.7231183463831747E-017
   2.0066666666666662E-005    -4.6981837354503582E-017
   2.0266666666666660E-005    -7.3024193522184648E-017
   2.0466666666666665E-005    -8.9148454210292091E-017
   2.0666666666666663E-005    -9.0134630751364524E-017
   2.0866666666666661E-005    -7.2989552966796717E-017
   2.1066666666666659E-005    -3.7874600500888893E-017
   2.1266666666666664E-005     1.1502204652646960E-017
   2.1466666666666662E-005     6.8153387634531157E-017
   2.1666666666666660E-005     1.2272568052988903E-016
   2.1866666666666665E-005     1.6491133710210833E-016
   2.2066666666666663E-005     1.8510780908835099E-016
   2.2266666666666661E-005     1.7604006577426213E-016
   2.2466666666666659E-005     1.3409343700440676E-016
   2.2666666666666664E-005     6.0194953018983436E-017
   2.2866666666666662E-005    -3.9808145138275177E-017
   2.3066666666666660E-005    -1.5523756042838530E-016
   2.3266666666666665E-005    -2.7108130745142295E-016
   2.3466666666666663E-005    -3.6889169759486191E-016
   2.3666666666666661E-005    -4.2818360308470630E-016
   2.3866666666666660E-005    -4.2853681709910689E-016
   2.4066666666666664E-005    -3.5262488129508134E-016
   2.4266666666666662E-005    -1.9025224085599827E-016
   2.4466666666666661E-005     5.6860094233825387E-017
   2.4666666666666665E-005     3.7030901729873809E-016
   2.4866666666666663E-005     7.1158995445393825E-016
   2.5066666666666662E-005     1.0217595444137205E-015
   2.5266666666666660E-005     1.2259440567287871E-015
   2.5466666666666665E-005     1.2439063073226763E-015
   2.5666666666666663E-005     1.0066607085202491E-015
   2.5866666666666661E-005     4.7734377621533735E-016
   2.6066666666666666E-005    -3.2747689844282813E-016
   2.6266666666666664E-005    -1.3216028945146481E-015
   2.6466666666666662E-005    -2.3444595246860171E-015
   2.6666666666666660E-005    -3.1734315910974926E-015
   2.6866666666666665E-005    -3.5563275130102660E-015
   2.7066666666666663E-005    -3.2626604632136588E-015
   2.7266666666666661E-005    -2.1469387196520701E-015
   2.7466666666666666E-005    -2.1166872698745575E-016
   2.7666666666666664E-005     2.3461845108344012E-015
   2.7866666666666662E-005     5.1223854358709459E-015
   2.8066666666666667E-005     7.5399684762835954E-015
   2.8266666666666658E-005     8.9367621106034282E-015
   2.8466666666666663E-005     8.6996597768736731E-015
   2.8666666666666668E-005     6.4256640346132740E-015
   2.8866666666666659E-005     2.0773122332674471E-015
   2.9066666666666664E-005    -3.9074789173616187E-015
   2.9266666666666669E-005    -1.0590602465435947E-014
   2.9466666666666660E-005    -1.6622784596202824E-014
   2.9666666666666665E-005    -2.0454625594738349E-014
   2.9866666666666656E-005    -2.0649863178706213E-014
   3.0066666666666661E-005    -1.6251058500470595E-014
   3.0266666666666666E-005    -7.1227563236266646E-015
   3.0466666666666657E-005     5.8156194787101814E-015
   3.0666666666666662E-005     2.0549217948152411E-014
   3.0866666666666667E-005     3.4174713435716326E-014
   3.1066666666666658E-005     4.3363380784529461E-014
   3.1266666666666663E-005     4.5029804093464362E-014
   3.1466666666666668E-005     3.7095482983071266E-014
   3.1666666666666659E-005     1.9189746613625272E-014
   3.1866666666666664E-005    -6.8892898311444601E-015
   3.2066666666666656E-005    -3.7112631147199443E-014
   3.2266666666666660E-005    -6.5656460452353468E-014
   3.2466666666666665E-005    -8.5840256552652141E-014
   3.2666666666666657E-005    -9.1455275288328921E-014
   3.2866666666666661E-005    -7.8258542384117942E-014
   3.3066666666666666E-005    -4.5324567064337256E-014
   3.3266666666666658E-005     4.0813196247471684E-015
   3.3466666666666662E-005     6.2400156708997348E-014
   3.3666666666666667E-005     1.1861995925897813E-013
   3.3866666666666659E-005     1.6005116547562597E-013
   3.4066666666666664E-005     1.7481497278185963E-013
   3.4266666666666668E-005     1.5462094654695952E-013
   3.4466666666666660E-005     9.7267057609718436E-014
   3.4666666666666665E-005     8.2549403323951473E-015
   3.4866666666666656E-005    -9.8998491745217745E-014
   3.5066666666666661E-005    -2.0465152688520643E-013
   3.5266666666666666E-005    -2.8560388634742165E-013
   3.5466666666666657E-005    -3.1993741726836218E-013
   3.5666666666666662E-005    -2.9188030430849814E-013
   3.5866666666666667E-005    -1.9630112572221342E-013
   3.6066666666666658E-005    -4.1674942818298286E-014
   3.6266666666666663E-005     1.4938087101384572E-013
   3.6466666666666668E-005     3.4252347838555854E-013
   3.6666666666666659E-005     4.9702440171348884E-013
   3.6866666666666664E-005     5.7336660563388572E-013
   3.7066666666666669E-005     5.4184161306784320E-013
   3.7266666666666660E-005     3.9047649032431178E-013
   3.7466666666666665E-005     1.3049858417067345E-013
   3.7666666666666656E-005    -2.0220870279057136E-013
   3.7866666666666661E-005    -5.5059726034036433E-013
   3.8066666666666666E-005    -8.4493014762197832E-013
   3.8266666666666657E-005    -1.0152376243883729E-012
   3.8466666666666662E-005    -1.0057641793600988E-012
   3.8666666666666667E-005    -7.8870620828303365E-013
   3.8866666666666658E-005    -3.7428934282449086E-013
   3.9066666666666663E-005     1.8543839662537003E-013
   3.9266666666666668E-005     8.0080228956694067E-013
   3.9466666666666659E-005     1.3569905377987372E-012
   3.9666666666666664E-005     1.7334837219824331E-012
   3.9866666666666655E-005     1.8274635568420765E-012
   4.0066666666666660E-005     1.5770154858376960E-012
   4.0266666666666665E-005     9.7940615604215569E-013
   4.0466666666666656E-005     1.0007507404129595E-013
   4.0666666666666661E-005    -9.3073713784036654E-013
   4.0866666666666666E-005    -1.9347190838631570E-012
   4.1066666666666657E-005    -2.7140192937688902E-012
   4.1266666666666662E-005    -3.0874550629431142E-012
   4.1466666666666667E-005    -2.9282054740968734E-012
   4.1666666666666658E-005    -2.1957063204197661E-012
   4.1866666666666663E-005    -9.5469853606577416E-013
   4.2066666666666668E-005     6.2395596531453393E-013
   4.2266666666666660E-005     2.2831257548884692E-012
   4.2466666666666664E-005     3.7185783151836525E-012
   4.2666666666666656E-005     4.6321264711256693E-012
   4.2866666666666661E-005     4.7900207106887788E-012
   4.3066666666666665E-005     4.0757638177833615E-012
   4.3266666666666657E-005     2.5263481072166393E-012
   4.3466666666666662E-005     3.4288018538645938E-013
   4.3666666666666666E-005    -2.1294728841025700E-012
   4.3866666666666658E-005    -4.4518460890515489E-012
   4.4066666666666663E-005    -6.1659922310836441E-012
   4.4266666666666667E-005    -6.8807832087357506E-012
   4.4466666666666659E-005    -6.3554155606609552E-012
   4.4666666666666664E-005    -4.5627320896498463E-012
   4.4866666666666655E-005    -1.7181045410989747E-012
   4.5066666666666660E-005     1.7355765199121237E-012
   4.5266666666666665E-005     5.1887556473817958E-012
   4.5466666666666656E-005     7.9651531474325554E-012
   4.5666666666666661E-005     9.4456961557364045E-012
   4.5866666666666666E-005     9.1950615306907274E-012
   4.6066666666666657E-005     7.0666339747318925E-012
   4.6266666666666662E-005     3.2632722807413191E-012
   4.6466666666666667E-005    -1.6625836286594422E-012
   4.6666666666666658E-005    -6.8759921298329761E-012
   4.6866666666666663E-005    -1.1388062433673772E-011
   4.7066666666666668E-005    -1.4227884030065571E-011
   4.7266666666666659E-005    -1.4629596030272954E-011
   4.7466666666666664E-005    -1.2200617010424474E-011
   4.7666666666666655E-005    -7.0372495835437420E-012
   4.7866666666666660E-005     2.3944661402690010E-013
   4.8066666666666665E-005     8.5421634167541802E-012
   4.8266666666666656E-005     1.6468466578817393E-011
   4.8466666666666661E-005     2.2525162594997384E-011
   4.8666666666666666E-005     2.5391033112395477E-011
   4.8866666666666657E-005     2.4172792822833774E-011
   4.9066666666666662E-005     1.8606437186918451E-011
   4.9266666666666667E-005     9.1622880526535710E-012
   4.9466666666666658E-005    -2.9734628260954086E-012
   4.9666666666666663E-005    -1.6047148396207604E-011
   4.9866666666666655E-005    -2.7998800515375788E-011
   5.0066666666666659E-005    -3.6796715482656839E-011
   5.0266666666666664E-005    -4.0789587679228551E-011
   5.0466666666666656E-005    -3.9013209807270524E-011
   5.0666666666666660E-005    -3.1392957427859652E-011
   5.0866666666666665E-005    -1.8798857838265335E-011
   5.1066666666666657E-005    -2.9348894536252353E-012
   5.1266666666666661E-005     1.3925897109789153E-011
   5.1466666666666666E-005     2.9318969564117760E-011
   5.1666666666666658E-005     4.1013447923121701E-011
   5.1866666666666662E-005     4.7406646600194256E-011
   5.2066666666666667E-005     4.7811263902780797E-011
   5.2266666666666659E-005     4.2574816245175205E-011
   5.2466666666666664E-005     3.2999994077672065E-011
   5.2666666666666655E-005     2.1072143359976557E-011
   5.2866666666666660E-005     9.0387205187333499E-012
   5.3066666666666665E-005    -1.0814143410420427E-012
   5.3266666666666656E-005    -7.9610760195656794E-012
   5.3466666666666661E-005    -1.1300158399377308E-011
   5.3666666666666666E-005    -1.1950816808206667E-011
   5.3866666666666657E-005    -1.1785203903059427E-011
   5.4066666666666662E-005    -1.3306559309342887E-011
   5.4266666666666667E-005    -1.9056746364558302E-011
   5.4466666666666658E-005    -3.0920541953844993E-011
   5.4666666666666663E-005    -4.9459217446865026E-011
   5.4866666666666668E-005    -7.3416192759715790E-011
   5.5066666666666659E-005    -9.9521486306130007E-011
   5.5266666666666664E-005    -1.2268020433749331E-010
   5.5466666666666655E-005    -1.3656854010982201E-010
   5.5666666666666660E-005    -1.3458868111232516E-010
   5.5866666666666665E-005    -1.1106266307981027E-010
   5.6066666666666656E-005    -6.2488764492258549E-011
   5.6266666666666661E-005     1.1347952391413295E-011
   5.6466666666666666E-005     1.0661819975033361E-010
   5.6666666666666657E-005     2.1521621830134178E-010
   5.6866666666666662E-005     3.2515774925713639E-010
   5.7066666666666667E-005     4.2162596925700762E-010
   5.7266666666666658E-005     4.8858477402243294E-010
   5.7466666666666663E-005     5.1079017441446491E-010
   5.7666666666666654E-005     4.7595904156580466E-010
   5.7866666666666659E-005     3.7681830858216070E-010
   5.8066666666666664E-005     2.1275745305931386E-010
   5.8266666666666655E-005    -9.1545636566975439E-012
   5.8466666666666660E-005    -2.7395545445903802E-010
   5.8666666666666665E-005    -5.5945647263119467E-010
   5.8866666666666656E-005    -8.3776702195780629E-010
   5.9066666666666661E-005    -1.0775637168565071E-009
   5.9266666666666666E-005    -1.2469144205088687E-009
   5.9466666666666657E-005    -1.3164192268557986E-009
   5.9666666666666662E-005    -1.2624074366382505E-009
   5.9866666666666667E-005    -1.0699285952633864E-009
   6.0066666666666659E-005    -7.3529506832608039E-010
   6.0266666666666663E-005    -2.6795759931551201E-010
   6.0466666666666655E-005     3.0847788191277443E-010
   6.0666666666666660E-005     9.5625522334255349E-010
   6.0866666666666664E-005     1.6246354325967578E-009
   6.1066666666666656E-005     2.2523322995410700E-009
   6.1266666666666661E-005     2.7712697375970616E-009
   6.1466666666666665E-005     3.1116384525575458E-009
   6.1666666666666657E-005     3.2081128865801879E-009
   6.1866666666666662E-005     3.0069341278172148E-009
   6.2066666666666666E-005     2.4733900083031797E-009
   6.2266666666666658E-005     1.5990238185478457E-009
   6.2466666666666663E-005     4.0774781457020528E-010
   6.2666666666666668E-005    -1.0400792428802854E-009
   6.2866666666666659E-005    -2.6465584381963679E-009
   6.3066666666666664E-005    -4.2789710075522381E-009
   6.3266666666666655E-005    -5.7768695112596420E-009
   6.3466666666666660E-005    -6.9636982818419017E-009
   6.3666666666666665E-005    -7.6625524964866465E-009
   6.3866666666666656E-005    -7.7150964522412244E-009
   6.4066666666666661E-005    -7.0020586219567435E-009
   6.4266666666666666E-005    -5.4632065418125881E-009
   6.4466666666666657E-005    -3.1143742088407281E-009
   6.4666666666666662E-005    -5.9029127089771814E-011
   6.4866666666666667E-005     3.5079136533635832E-009
   6.5066666666666658E-005     7.3057805258919995E-009
   6.5266666666666663E-005     1.0984224250056454E-008
   6.5466666666666654E-005     1.4149526515205951E-008
   6.5666666666666659E-005     1.6399708228596148E-008
   6.5866666666666664E-005     1.7365833231148165E-008
   6.6066666666666655E-005     1.6755813211707310E-008
   6.6266666666666660E-005     1.4396245002474124E-008
   6.6466666666666665E-005     1.0267453850930309E-008
   6.6666666666666656E-005     4.5270708371302368E-009
   6.6866666666666661E-005    -2.4818752007854761E-009
   6.7066666666666666E-005    -1.0241156394140546E-008
   6.7266666666666657E-005    -1.8086999663972145E-008
   6.7466666666666662E-005    -2.5258484690438524E-008
   6.7666666666666667E-005    -3.0961861365503784E-008
   6.7866666666666658E-005    -3.4446060853365407E-008
   6.8066666666666663E-005    -3.5083009126166229E-008
   6.8266666666666655E-005    -3.2445103026343142E-008
   6.8466666666666659E-005    -2.6371793159327168E-008
   6.8666666666666664E-005    -1.7017354554627112E-008
   6.8866666666666656E-005    -4.8730547044354674E-009
   6.9066666666666660E-005     9.2413123170691698E-009
   6.9266666666666665E-005     2.4219051896190775E-008
   6.9466666666666657E-005     3.8740830524781017E-008
   6.9666666666666661E-005     5.1377919315586201E-008
   6.9866666666666666E-005     6.0717408427430068E-008
   7.0066666666666658E-005     6.5499615078770230E-008
   7.0266666666666662E-005     6.4755661231620354E-008
   7.0466666666666654E-005     5.7931901222705129E-008
   7.0666666666666659E-005     4.4987741439596798E-008
   7.0866666666666664E-005     2.6454664529771932E-008
   7.1066666666666655E-005     3.4466345022329396E-009
   7.1266666666666660E-005    -2.2384101199080433E-008
   7.1466666666666665E-005    -4.8947187942909227E-008
   7.1666666666666656E-005    -7.3866376713712167E-008
   7.1866666666666661E-005    -9.4674350431011157E-008
   7.2066666666666666E-005    -1.0903564089605378E-007
   7.2266666666666657E-005    -1.1497904503661016E-007
   7.2466666666666662E-005    -1.1111811451469988E-007
   7.2666666666666667E-005    -9.6837528095472860E-008
   7.2866666666666658E-005    -7.2424263629577608E-008
   7.3066666666666663E-005    -3.9125986051225626E-008
   7.3266666666666654E-005     8.7545607495128132E-010
   7.3466666666666659E-005     4.4580579484612922E-008
   7.3666666666666664E-005     8.8375639585221890E-008
   7.3866666666666655E-005     1.2831114662640965E-007
   7.4066666666666660E-005     1.6043568582180745E-007
   7.4266666666666665E-005     1.8115839960486610E-007
   7.4466666666666656E-005     1.8760867091316935E-007
   7.4666666666666661E-005     1.7795931072310761E-007
   7.4866666666666666E-005     1.5168068322136715E-007
   7.5066666666666657E-005     1.0969684498182929E-007
   7.5266666666666662E-005     5.4422033651377439E-008
   7.5466666666666653E-005    -1.0334952237737059E-008