  -3.3333333333333335E-005     0.0000000000000000     
  -3.3133333333333337E-005     0.0000000000000000     
  -3.2933333333333332E-005     0.0000000000000000     
  -3.2733333333333334E-005     0.0000000000000000     
  -3.2533333333333336E-005     0.0000000000000000     
  -3.2333333333333338E-005     0.0000000000000000     
  -3.2133333333333333E-005     0.0000000000000000     
  -3.1933333333333335E-005     0.0000000000000000     
  -3.1733333333333337E-005     0.0000000000000000     
  -3.1533333333333332E-005     0.0000000000000000     
  -3.1333333333333334E-005     0.0000000000000000     
  -3.1133333333333336E-005     0.0000000000000000     
  -3.0933333333333338E-005     0.0000000000000000     
  -3.0733333333333333E-005     0.0000000000000000     
  -3.0533333333333335E-005    -4.2355066506722881E-038
  -3.0333333333333337E-005    -1.4484680165431067E-036
  -3.0133333333333335E-005    -1.9681034812798994E-035
  -2.9933333333333334E-005    -1.5336950385750119E-034
  -2.9733333333333336E-005    -7.4022148532921934E-034
  -2.9533333333333334E-005    -1.8669051721758931E-033
  -2.9333333333333336E-005     2.6489948290958581E-033
  -2.9133333333333334E-005     5.3747963845179766E-032
  -2.8933333333333336E-005     3.0961497280646106E-031
  -2.8733333333333335E-005     1.1696367810307238E-030
  -2.8533333333333333E-005     3.1191191582659343E-030
  -2.8333333333333335E-005     5.0258545814408115E-030
  -2.8133333333333337E-005    -2.0811562794767926E-030
  -2.7933333333333336E-005    -4.9388457153698557E-029
  -2.7733333333333334E-005    -2.0916148362275544E-028
  -2.7533333333333336E-005    -5.8425170930791712E-028
  -2.7333333333333335E-005    -1.1644182437521818E-027
  -2.7133333333333333E-005    -1.3476607527647480E-027
  -2.6933333333333335E-005     1.0890801353758305E-027
  -2.6733333333333337E-005     1.1405805229089888E-026
  -2.6533333333333336E-005     3.8237011495131757E-026
  -2.6333333333333334E-005     8.8711098072229530E-026
  -2.6133333333333336E-005     1.5072040882264141E-025
  -2.5933333333333335E-005     1.5369268211233310E-025
  -2.5733333333333333E-005    -9.1451775847698620E-026
  -2.5533333333333335E-005    -9.4056931440805521E-025
  -2.5333333333333337E-005    -2.8556458781333504E-024
  -2.5133333333333336E-005    -6.0502730269515328E-024
  -2.4933333333333334E-005    -9.6027749879306842E-024
  -2.4733333333333336E-005    -9.9137705512055667E-024
  -2.4533333333333334E-005     1.1228579867918542E-024
  -2.4333333333333333E-005     3.6802777461875208E-023
  -2.4133333333333335E-005     1.1212376985204410E-022
  -2.3933333333333337E-005     2.3163550964305261E-022
  -2.3733333333333335E-005     3.6442799454595038E-022
  -2.3533333333333334E-005     4.0681663096357186E-022
  -2.3333333333333336E-005     1.4548640622906685E-022
  -2.3133333333333338E-005    -7.4538716686944874E-022
  -2.2933333333333336E-005    -2.6147318731510981E-021
  -2.2733333333333335E-005    -5.5801619376358939E-021
  -2.2533333333333337E-005    -9.0584508224151464E-021
  -2.2333333333333335E-005    -1.1125152797505598E-020
  -2.2133333333333334E-005    -7.9408358840955452E-021
  -2.1933333333333336E-005     6.2367988689701390E-021
  -2.1733333333333338E-005     3.7652226579864468E-020
  -2.1533333333333336E-005     8.9371916124702700E-020
  -2.1333333333333335E-005     1.5484250807929383E-019
  -2.1133333333333337E-005     2.0943965615580923E-019
  -2.0933333333333335E-005     2.0298853061333100E-019
  -2.0733333333333334E-005     5.9184903412530343E-020
  -2.0533333333333336E-005    -3.0951564028514835E-019
  -2.0333333333333337E-005    -9.6259431238022408E-019
  -2.0133333333333336E-005    -1.8633425701855710E-018
  -1.9933333333333334E-005    -2.7894668702557677E-018
  -1.9733333333333336E-005    -3.2501397214359333E-018
  -1.9533333333333335E-005    -2.4624778792579757E-018
  -1.9333333333333333E-005     5.3814768635727255E-019
  -1.9133333333333335E-005     6.5772543481743953E-018
  -1.8933333333333337E-005     1.5769250975278217E-017
  -1.8733333333333336E-005     2.6744925388942972E-017
  -1.8533333333333334E-005     3.5878359741370426E-017
  -1.8333333333333336E-005     3.6896803773106680E-017
  -1.8133333333333335E-005     2.1413516446986538E-017
  -1.7933333333333337E-005    -1.9046785145098880E-017
  -1.7733333333333335E-005    -8.9178109986248549E-017
  -1.7533333333333337E-005    -1.8439221178412773E-016
  -1.7333333333333336E-005    -2.8482838447383553E-016
  -1.7133333333333334E-005    -3.5116749320485481E-016
  -1.6933333333333336E-005    -3.2557009018667853E-016
  -1.6733333333333335E-005    -1.4140382932616713E-016
  -1.6533333333333337E-005     2.5557281156364342E-016
  -1.6333333333333335E-005     8.7479667556119845E-016
  -1.6133333333333337E-005     1.6423963809770278E-015
  -1.5933333333333336E-005     2.3680248798642135E-015
  -1.5733333333333334E-005     2.7344320178592107E-015
  -1.5533333333333336E-005     2.3301727064038057E-015
  -1.5333333333333334E-005     7.4259687562251425E-016
  -1.5133333333333336E-005    -2.2839902239769076E-015
  -1.4933333333333335E-005    -6.6424052208142353E-015
  -1.4733333333333337E-005    -1.1656220728285254E-014
  -1.4533333333333335E-005    -1.5950928296221335E-014
  -1.4333333333333337E-005    -1.7500631325457038E-014
  -1.4133333333333336E-005    -1.3943564037336869E-014
  -1.3933333333333334E-005    -3.2172977853859778E-015
  -1.3733333333333336E-005     1.5522111727462922E-014
  -1.3533333333333335E-005     4.0856853647283724E-014
  -1.3333333333333337E-005     6.8237547183673666E-014
  -1.3133333333333335E-005     8.9693330584201130E-014
  -1.2933333333333337E-005     9.4553536636673120E-014
  -1.2733333333333336E-005     7.1499611545998273E-014
  -1.2533333333333338E-005     1.1980978372394883E-014
  -1.2333333333333336E-005    -8.5419271247754379E-014
  -1.2133333333333335E-005    -2.1062368948203483E-013
  -1.1933333333333337E-005    -3.3915375566274485E-013
  -1.1733333333333335E-005    -4.3238565730333298E-013
  -1.1533333333333337E-005    -4.4249501210849147E-013
  -1.1333333333333336E-005    -3.2284459513312787E-013
  -1.1133333333333337E-005    -4.3178051202933675E-014
  -1.0933333333333336E-005     3.9286395324429118E-013
  -1.0733333333333334E-005     9.3229670301370381E-013
  -1.0533333333333336E-005     1.4651911146276281E-012
  -1.0333333333333335E-005     1.8308940431265904E-012
  -1.0133333333333337E-005     1.8424457753242335E-012
  -9.9333333333333354E-006     1.3299349963414426E-012
  -9.7333333333333373E-006     1.9809751650391112E-013
  -9.5333333333333358E-006    -1.5128258708659239E-012
  -9.3333333333333343E-006    -3.5795353448629439E-012
  -9.1333333333333362E-006    -5.5808816109880880E-012
  -8.9333333333333348E-006    -6.9335640472084089E-012
  -8.7333333333333367E-006    -6.9884049961838911E-012
  -8.5333333333333352E-006    -5.1837962984589586E-012
  -8.3333333333333371E-006    -1.2352242125679848E-012
  -8.1333333333333356E-006     4.6783026450745606E-012
  -7.9333333333333376E-006     1.1783720800318509E-011
  -7.7333333333333361E-006     1.8695552120714488E-011
  -7.5333333333333346E-006     2.3554962596748150E-011
  -7.3333333333333365E-006     2.4344088646046322E-011
  -7.1333333333333351E-006     1.9351991308297932E-011
  -6.9333333333333370E-006     7.7199840076394143E-012
  -6.7333333333333355E-006    -1.0050511387356688E-011
  -6.5333333333333374E-006    -3.1771475465036186E-011
  -6.3333333333333359E-006    -5.3563879454210313E-011
  -6.1333333333333379E-006    -7.0274786396747917E-011
  -5.9333333333333364E-006    -7.6335586835217683E-011
  -5.7333333333333349E-006    -6.6973828830312385E-011
  -5.5333333333333368E-006    -3.9576925959990337E-011
  -5.3333333333333354E-006     5.0864627537146231E-012
  -5.1333333333333373E-006     6.2122733729596082E-011
  -4.9333333333333358E-006     1.2254875920527207E-010
  -4.7333333333333377E-006     1.7428867759934289E-010
  -4.5333333333333362E-006     2.0412160727332520E-010
  -4.3333333333333348E-006     2.0033548805526950E-010
  -4.1333333333333367E-006     1.5561682674374918E-010
  -3.9333333333333352E-006     6.9551575885483733E-011
  -3.7333333333333371E-006    -4.9918646724053085E-011
  -3.5333333333333356E-006    -1.8661564795062667E-010
  -3.3333333333333376E-006    -3.1806538239033071E-010
  -3.1333333333333361E-006    -4.1911247018844472E-010
  -2.9333333333333346E-006    -4.6663219257371096E-010
  -2.7333333333333365E-006    -4.4440864821028360E-010
  -2.5333333333333384E-006    -3.4707283721896973E-010
  -2.3333333333333336E-006    -1.8207230787128226E-010
  -2.1333333333333355E-006     3.0994571519734972E-011
  -1.9333333333333374E-006     2.6376026168549775E-010
  -1.7333333333333393E-006     4.8456604727789077E-010
  -1.5333333333333345E-006     6.6478233425732273E-010
  -1.3333333333333364E-006     7.8432907464525412E-010
  -1.1333333333333383E-006     8.3477268131033841E-010
  -9.3333333333333343E-007     8.1886368057543094E-010
  -7.3333333333333535E-007     7.4629236628252886E-010
  -5.3333333333333726E-007     6.2659913376373645E-010
  -3.3333333333333918E-007     4.6130076596294602E-010
  -1.3333333333333432E-007     2.3804454563087309E-010
   6.6666666666663770E-008    -7.0311215388374815E-011
   2.6666666666666185E-007    -4.9956265432848570E-010
   4.6666666666666672E-007    -1.0804533219817699E-009
   6.6666666666666480E-007    -1.8190878551380133E-009
   8.6666666666666289E-007    -2.6755132891253239E-009
   1.0666666666666610E-006    -3.5464092727050256E-009
   1.2666666666666658E-006    -4.2586509151858257E-009
   1.4666666666666639E-006    -4.5797705072315280E-009
   1.6666666666666620E-006    -4.2488350481629229E-009
   1.8666666666666669E-006    -3.0271609394992271E-009
   2.0666666666666649E-006    -7.6323535179990191E-010
   2.2666666666666630E-006     2.5389010764993740E-009
   2.4666666666666611E-006     6.6624276154290569E-009
   2.6666666666666660E-006     1.1147886091676876E-008
   2.8666666666666641E-006     1.5305296126918612E-008
   3.0666666666666622E-006     1.8277571570478826E-008
   3.2666666666666602E-006     1.9156171345600528E-008
   3.4666666666666651E-006     1.7139289778649795E-008
   3.6666666666666632E-006     1.1711942924385558E-008
   3.8666666666666613E-006     2.8180977219543120E-009
   4.0666666666666661E-006    -9.0101830428695349E-009
   4.2666666666666642E-006    -2.2600959901797758E-008
   4.4666666666666623E-006    -3.6194889570692507E-008
   4.6666666666666604E-006    -4.7614743017782968E-008
   4.8666666666666652E-006    -5.4545278061587573E-008
   5.0666666666666633E-006    -5.4895081662291282E-008
   5.2666666666666614E-006    -4.7191477992325176E-008
   5.4666666666666663E-006    -3.0944432535204347E-008
   5.6666666666666644E-006    -6.9095379097064552E-009
   5.8666666666666624E-006     2.2813534095132089E-008
   6.0666666666666605E-006     5.4891987323727627E-008
   6.2666666666666654E-006     8.5094455923078100E-008
   6.4666666666666635E-006     1.0882519692074102E-007
   6.6666666666666616E-006     1.2179437388403983E-007
   6.8666666666666664E-006     1.2072668157744330E-007
   7.0666666666666645E-006     1.0398971534216638E-007
   7.2666666666666626E-006     7.2022325266265478E-008
   7.4666666666666607E-006     2.7463980546120086E-008
   7.6666666666666655E-006    -2.5070299719471885E-008
   7.8666666666666636E-006    -7.9564795574440045E-008
   8.0666666666666617E-006    -1.2945588821719495E-007
   8.2666666666666598E-006    -1.6862878909423059E-007
   8.4666666666666647E-006    -1.9238098564671869E-007
   8.6666666666666627E-006    -1.9816290513771477E-007
   8.8666666666666608E-006    -1.8593152174741024E-007
   9.0666666666666657E-006    -1.5801683902543831E-007
   9.2666666666666638E-006    -1.1849531573340476E-007
   9.4666666666666619E-006    -7.2173404630772218E-008
   9.6666666666666599E-006    -2.3386568237452575E-008
   9.8666666666666648E-006     2.5109344081036298E-008
   1.0066666666666663E-005     7.2857960044998748E-008
   1.0266666666666661E-005     1.2178232721991913E-007
   1.0466666666666666E-005     1.7548559842780904E-007
   1.0666666666666664E-005     2.3779746703831656E-007
   1.0866666666666662E-005     3.1078212449874556E-007
   1.1066666666666660E-005     3.9260155215299191E-007
   1.1266666666666665E-005     4.7575236202573175E-007
   1.1466666666666663E-005     5.4622708968097411E-007
   1.1666666666666661E-005     5.8406811811494959E-007
   1.1866666666666666E-005     5.6557921857396332E-007
   1.2066666666666664E-005     4.6715703167315454E-007
   1.2266666666666662E-005     2.7035079841039299E-007
   1.2466666666666660E-005    -3.2588498330715630E-008
   1.2666666666666665E-005    -4.3367064887690411E-007
   1.2866666666666663E-005    -9.0575116534671394E-007
   1.3066666666666661E-005    -1.4017671538357857E-006
   1.3266666666666666E-005    -1.8573488080882151E-006
   1.3466666666666664E-005    -2.1970438658626883E-006
   1.3666666666666662E-005    -2.3437759176571473E-006
   1.3866666666666660E-005    -2.2305152709655398E-006
   1.4066666666666665E-005    -1.8125899006011863E-006
   1.4266666666666663E-005    -1.0787093741285083E-006
   1.4466666666666661E-005    -5.8718754191036759E-008
   1.4666666666666666E-005     1.1736202719520511E-006
   1.4866666666666664E-005     2.5039224850082624E-006
   1.5066666666666662E-005     3.7867875734760685E-006
   1.5266666666666661E-005     4.8609853008005217E-006
   1.5466666666666665E-005     5.5685326157906379E-006
   1.5666666666666663E-005     5.7752324765671401E-006
   1.5866666666666662E-005     5.3898521704231800E-006
   1.6066666666666660E-005     4.3791576052542613E-006
   1.6266666666666665E-005     2.7765180871239024E-006
   1.6466666666666663E-005     6.8267503637092707E-007
   1.6666666666666661E-005    -1.7415963666035708E-006
   1.6866666666666666E-005    -4.2900187084005408E-006
   1.7066666666666664E-005    -6.7305866654047655E-006
   1.7266666666666662E-005    -8.8279397341899346E-006
   1.7466666666666660E-005    -1.0365457541336046E-005
   1.7666666666666665E-005    -1.1164470540533986E-005
   1.7866666666666663E-005    -1.1098692649182111E-005
   1.8066666666666661E-005    -1.0102980174577627E-005
   1.8266666666666666E-005    -8.1765870571996437E-006
   1.8466666666666664E-005    -5.3820032218027306E-006
   1.8666666666666662E-005    -1.8409731419703310E-006
   1.8866666666666660E-005     2.2706281947352067E-006
   1.9066666666666665E-005     6.7278861645073649E-006
   1.9266666666666663E-005     1.1261579127963881E-005
   1.9466666666666661E-005     1.5563299315874051E-005
   1.9666666666666666E-005     1.9292676509547638E-005
   1.9866666666666664E-005     2.2089010063300736E-005
   2.0066666666666662E-005     2.3589578545096698E-005
   2.0266666666666660E-005     2.3456134314719029E-005
   2.0466666666666665E-005     2.1409613893271149E-005
   2.0666666666666663E-005     1.7271146354467124E-005
   2.0866666666666661E-005     1.1005279908646822E-005
   2.1066666666666659E-005     2.7595211956834814E-006
   2.1266666666666664E-005    -7.1068630997811539E-006
   2.1466666666666662E-005    -1.8011925122402859E-005
   2.1666666666666660E-005    -2.9163960652327504E-005
   2.1866666666666665E-005    -3.9601832690550690E-005
   2.2066666666666663E-005    -4.8262873737226308E-005
   2.2266666666666661E-005    -5.4074644281763110E-005
   2.2466666666666659E-005    -5.6062966122844276E-005
   2.2666666666666664E-005    -5.3465551792464230E-005
   2.2866666666666662E-005    -4.5838596445204414E-005
   2.3066666666666660E-005    -3.3143365018846615E-005
   2.3266666666666665E-005    -1.5801272340914848E-005
   2.3466666666666663E-005     5.2911749516790076E-006
   2.3666666666666661E-005     2.8792102024729463E-005
   2.3866666666666660E-005     5.2988464132211331E-005
   2.4066666666666664E-005     7.5910013285011949E-005
   2.4266666666666662E-005     9.5474382569730304E-005
   2.4466666666666661E-005     1.0965183314072959E-004
   2.4666666666666665E-005     1.1663682509680250E-004
   2.4866666666666663E-005     1.1501333628056490E-004
   2.5066666666666662E-005     1.0390182725390136E-004
   2.5266666666666660E-005     8.3077318120348373E-005
   2.5466666666666665E-005     5.3049909508258393E-005
   2.5666666666666663E-005     1.5100875853315921E-005
   2.5866666666666661E-005    -2.8730864219990226E-005
   2.6066666666666666E-005    -7.5715645716224999E-005
   2.6266666666666664E-005    -1.2255539599180466E-004
   2.6466666666666662E-005    -1.6556133908095271E-004
   2.6666666666666660E-005    -2.0088382602650225E-004
   2.6866666666666665E-005    -2.2478700218021743E-004
   2.7066666666666663E-005    -2.3395566077790461E-004
   2.7266666666666661E-005    -2.2581566282700176E-004
   2.7466666666666666E-005    -1.9884344758246532E-004
   2.7666666666666664E-005    -1.5283553391853469E-004
   2.7866666666666662E-005    -8.9106215225083873E-005
   2.8066666666666667E-005    -1.0582841013317074E-005
   2.8266666666666658E-005     7.8227366129350750E-005
   2.8466666666666663E-005     1.7141582880095800E-004
   2.8666666666666668E-005     2.6200045175412431E-004
   2.8866666666666659E-005     3.4239154951158505E-004
   2.9066666666666664E-005     4.0496858255268579E-004
   2.9266666666666669E-005     4.4272522817591169E-004
   2.9466666666666660E-005     4.4992902341272787E-004
   2.9666666666666665E-005     4.2273490888167296E-004
   2.9866666666666656E-005     3.5969208225571309E-004
   3.0066666666666661E-005     2.6208940600522132E-004
   3.0266666666666666E-005     1.3409720650480768E-004
   3.0466666666666657E-005    -1.7319803183711449E-005
   3.0666666666666662E-005    -1.8272416718212014E-004
   3.0866666666666667E-005    -3.5074702569847611E-004
   3.1066666666666658E-005    -5.0881631842642893E-004
   3.1266666666666663E-005    -6.4402295859489916E-004
   3.1466666666666668E-005    -7.4406655095378155E-004
   3.1666666666666659E-005    -7.9821549793349274E-004
   3.1866666666666664E-005    -7.9821599949542687E-004
   3.2066666666666656E-005    -7.3908690631556396E-004
   3.2266666666666660E-005    -6.1974284198811991E-004
   3.2466666666666665E-005    -4.4339654766376225E-004
   3.2666666666666657E-005    -2.1769953864116739E-004
   3.2866666666666661E-005     4.5407936049797183E-005
   3.3066666666666666E-005     3.3015490924095774E-004
   3.3266666666666658E-005     6.1770792793510213E-004
   3.3466666666666662E-005     8.8723281287003122E-004
   3.3666666666666667E-005     1.1172128785027361E-003
   3.3866666666666659E-005     1.2869623102998880E-003
   3.4066666666666664E-005     1.3782485649740379E-003
   3.4266666666666668E-005     1.3769144890329278E-003
   3.4466666666666660E-005     1.2743726276606714E-003
   3.4666666666666665E-005     1.0688340230586872E-003
   3.4866666666666656E-005     7.6613606472636115E-004
   3.5066666666666661E-005     3.8004958593364452E-004
   3.5266666666666666E-005    -6.8023507756038301E-005
   3.5466666666666657E-005    -5.5000542661521180E-004
   3.5666666666666662E-005    -1.0327389294598854E-003
   3.5866666666666667E-005    -1.4801522117585625E-003
   3.6066666666666658E-005    -1.8558585457560508E-003
   3.6266666666666663E-005    -2.1260036959094585E-003
   3.6466666666666668E-005    -2.2621361676572944E-003
   3.6666666666666659E-005    -2.2438552497525939E-003
   3.6866666666666664E-005    -2.0609958198927014E-003
   3.7066666666666669E-005    -1.7151332161479990E-003
   3.7266666666666660E-005    -1.2202436814738502E-003
   3.7466666666666665E-005    -6.0241770084822164E-004
   3.7666666666666656E-005     1.0139754414276778E-004
   3.7866666666666661E-005     8.4557030326515813E-004
   3.8066666666666666E-005     1.5787382480713505E-003
   3.8266666666666657E-005     2.2473427429950928E-003
   3.8466666666666662E-005     2.7994927890276433E-003
   3.8666666666666667E-005     3.1888758766575875E-003
   3.8866666666666658E-005     3.3784235619342350E-003
   3.9066666666666663E-005     3.3434512035988352E-003
   3.9266666666666668E-005     3.0740240473743018E-003
   3.9466666666666659E-005     2.5763532746206903E-003
   3.9666666666666664E-005     1.8730874735922247E-003
   3.9866666666666655E-005     1.0024410863867959E-003
   4.0066666666666660E-005     1.6181190354191024E-005
   4.0266666666666665E-005    -1.0234282161965536E-003
   4.0466666666666656E-005    -2.0475458902789556E-003
   4.0666666666666661E-005    -2.9852918093838305E-003
   4.0866666666666666E-005    -3.7686094381198625E-003
   4.1066666666666657E-005    -4.3371174354451449E-003
   4.1266666666666662E-005    -4.6426083562823139E-003
   4.1466666666666667E-005    -4.6528596922751127E-003
   4.1666666666666658E-005    -4.3544626548168769E-003
   4.1866666666666663E-005    -3.7544343661933990E-003
   4.2066666666666668E-005    -2.8804580386249403E-003
   4.2266666666666660E-005    -1.7796945987849193E-003
   4.2466666666666664E-005    -5.1621069214526462E-004
   4.2666666666666656E-005     8.3283062909320126E-004
   4.2866666666666661E-005     2.1819771387424358E-003
   4.3066666666666665E-005     3.4429774789685400E-003
   4.3266666666666657E-005     4.5305886053696332E-003
   4.3466666666666662E-005     5.3683085670374452E-003
   4.3666666666666666E-005     5.8936482517459501E-003
   4.3866666666666658E-005     6.0625829883874348E-003
   4.4066666666666663E-005     5.8528818172594380E-003
   4.4266666666666667E-005     5.2660837431743844E-003
   4.4466666666666659E-005     4.3279749208452439E-003
   4.4666666666666664E-005     3.0875134043057625E-003
   4.4866666666666655E-005     1.6142479657545975E-003
   4.5066666666666660E-005    -5.6406286260563270E-006
   4.5266666666666665E-005    -1.6744481794738000E-003
   4.5466666666666656E-005    -3.2889157703504695E-003
   4.5666666666666661E-005    -4.7466960845990577E-003
   4.5866666666666666E-005    -5.9529187658035679E-003
   4.6066666666666657E-005    -6.8264306632991097E-003
   4.6266666666666662E-005    -7.3052896641855256E-003
   4.6466666666666667E-005    -7.3511243007810343E-003
   4.6666666666666658E-005    -6.9520312506421884E-003
   4.6866666666666663E-005    -6.1237754601041992E-003
   4.7066666666666668E-005    -4.9091676633351107E-003
   4.7266666666666659E-005    -3.3756335389802002E-003
   4.7466666666666664E-005    -1.6111220492867817E-003
   4.7666666666666655E-005     2.8137163207977230E-004
   4.7866666666666660E-005     2.1902709366331016E-003
   4.8066666666666665E-005     4.0024096416570315E-003
   4.8266666666666656E-005     5.6100415232928115E-003
   4.8466666666666661E-005     6.9173797517387671E-003
   4.8666666666666666E-005     7.8462269062397338E-003
   4.8866666666666657E-005     8.3403576925835943E-003
   4.9066666666666662E-005     8.3684330000671266E-003
   4.9266666666666667E-005     7.9253544666688571E-003
   4.9466666666666658E-005     7.0320947975670246E-003
   4.9666666666666663E-005     5.7341376296640000E-003
   4.9866666666666655E-005     4.0987391627107760E-003
   5.0066666666666659E-005     2.2112525382517135E-003
   5.0266666666666664E-005     1.7076084665658441E-004
   5.0466666666666656E-005    -1.9147584344035562E-003
   5.0666666666666660E-005    -3.9335531149390021E-003
   5.0866666666666665E-005    -5.7753586206793234E-003
   5.1066666666666657E-005    -7.3366735485232860E-003
   5.1266666666666661E-005    -8.5259346336913899E-003
   5.1466666666666666E-005    -9.2684497071167642E-003
   5.1666666666666658E-005    -9.5109042012454011E-003
   5.1866666666666662E-005    -9.2252118305174609E-003
   5.2066666666666667E-005    -8.4114238641943718E-003
   5.2266666666666659E-005    -7.0993951876610678E-003
   5.2466666666666664E-005    -5.3489126472903419E-003
   5.2666666666666655E-005    -3.2480317483669910E-003
   5.2866666666666660E-005    -9.0950516763491649E-004
   5.3066666666666665E-005     1.5347112780327641E-003
   5.3266666666666656E-005     3.9406805433200957E-003
   5.3466666666666661E-005     6.1610796682741043E-003
   5.3666666666666666E-005     8.0546330490869761E-003
   5.3866666666666657E-005     9.4957295708497629E-003
   5.4066666666666662E-005     1.0383490960735348E-002
   5.4266666666666667E-005     1.0649554354814739E-002
   5.4466666666666658E-005     1.0263905360278484E-002
   5.4666666666666663E-005     9.2382262752757020E-003
   5.4866666666666668E-005     7.6264133143024429E-003
   5.5066666666666659E-005     5.5221364132907414E-003
   5.5266666666666664E-005     3.0535482183415780E-003
   5.5466666666666655E-005     3.7546245974195438E-004
   5.5666666666666660E-005    -2.3404863205224915E-003
   5.5866666666666665E-005    -4.9170455199072172E-003
   5.6066666666666656E-005    -7.1831483949219869E-003
   5.6266666666666661E-005    -8.9855402029069050E-003
   5.6466666666666666E-005    -1.0199437936020144E-002
   5.6666666666666657E-005    -1.0737502777984369E-002
   5.6866666666666662E-005    -1.0556505093998825E-002
   5.7066666666666667E-005    -9.6611943321051903E-003
   5.7266666666666658E-005    -8.1050448623509012E-003
   5.7466666666666663E-005    -5.9877453391828086E-003
   5.7666666666666654E-005    -3.4494864026914846E-003
   5.7866666666666659E-005    -6.6231709766918973E-004
   5.8066666666666664E-005     2.1809459875026362E-003
   5.8266666666666655E-005     4.8795885535715660E-003
   5.8466666666666660E-005     7.2388341191290603E-003
   5.8666666666666665E-005     9.0836893244174953E-003
   5.8866666666666656E-005     1.0271823890271150E-002
   5.9066666666666661E-005     1.0704521623876502E-002
   5.9266666666666666E-005     1.0334844160856289E-002
   5.9466666666666657E-005     9.1723263926670271E-003
   5.9666666666666662E-005     7.2837682097137008E-003
   5.9866666666666667E-005     4.7899590265426568E-003
   6.0066666666666659E-005     1.8584928237936147E-003
   6.0266666666666663E-005    -1.3068885735238204E-003
   6.0466666666666655E-005    -4.4797249804694496E-003
   6.0666666666666660E-005    -7.4261239074413657E-003
   6.0866666666666664E-005    -9.9208772045638362E-003
   6.1066666666666656E-005    -1.1763320551820236E-002
   6.1266666666666661E-005    -1.2791864294449933E-002
   6.1466666666666665E-005    -1.2896239303633102E-002
   6.1666666666666657E-005    -1.2026635336494229E-002
   6.1866666666666662E-005    -1.0199111489151001E-002
   6.2066666666666666E-005    -7.4968775024404086E-003
   6.2266666666666658E-005    -4.0672647108930225E-003
   6.2466666666666663E-005    -1.1447112690409975E-004
   6.2666666666666668E-005     4.1116266219513899E-003
   6.2866666666666659E-005     8.3300517087689877E-003
   6.3066666666666664E-005     1.2245935216825982E-002
   6.3266666666666655E-005     1.5569413478647679E-002
   6.3466666666666660E-005     1.8035092434746922E-002
   6.3666666666666665E-005     1.9420859359466171E-002
   6.3866666666666656E-005     1.9564776712176379E-002
   6.4066666666666661E-005     1.8378830726154503E-002
   6.4266666666666666E-005     1.5858435715272214E-002
   6.4466666666666657E-005     1.2086853061240849E-002
   6.4666666666666662E-005     7.2339637160163724E-003
   6.4866666666666667E-005     1.5492518173953768E-003
   6.5066666666666658E-005    -4.6507278975450482E-003
   6.5266666666666663E-005    -1.0999713784208621E-002
   6.5466666666666654E-005    -1.7102880962365018E-002
   6.5666666666666659E-005    -2.2560405661488439E-002
   6.5866666666666664E-005    -2.6991940749448908E-002
   6.6066666666666655E-005    -3.0060445987734503E-002
   6.6266666666666660E-005    -3.1493879721427406E-002
   6.6466666666666665E-005    -3.1103494248263686E-002
   6.6666666666666656E-005    -2.8797706398991603E-002
   6.6866666666666661E-005    -2.4590870566841186E-002
   6.7066666666666666E-005    -1.8606564110251789E-002
   6.7266666666666657E-005    -1.1075308913666784E-002
   6.7466666666666662E-005    -2.3268876644573907E-003
   6.7666666666666667E-005     7.2224218237661028E-003
   6.7866666666666658E-005     1.7087229612445545E-002
   6.8066666666666663E-005     2.6734455867823310E-002
   6.8266666666666655E-005     3.5608133504402631E-002
   6.8466666666666659E-005     4.3156817482828118E-002
   6.8666666666666664E-005     4.8862635287943851E-002
   6.8866666666666656E-005     5.2270900178752293E-002
   6.9066666666666660E-005     5.3018905098164301E-002
   6.9266666666666665E-005     5.0862409269672872E-002
   6.9466666666666657E-005     4.5698096503487551E-002
   6.9666666666666661E-005     3.7580300557626990E-002
   6.9866666666666666E-005     2.6730350590972327E-002
   7.0066666666666658E-005     1.3537128959074976E-002
   7.0266666666666662E-005    -1.4521096871384035E-003
   7.0466666666666654E-005    -1.7551026595672307E-002
   7.0666666666666659E-005    -3.3963298774723052E-002
   7.0866666666666664E-005    -4.9820467510835749E-002
   7.1066666666666655E-005    -6.4226681587393572E-002
   7.1266666666666660E-005    -7.6307974506148901E-002
   7.1466666666666665E-005    -8.5263094642572396E-002
   7.1666666666666656E-005    -9.0412771602277134E-002
   7.1866666666666661E-005    -9.1244226072637477E-002
   7.2066666666666666E-005    -8.7447959200170997E-002
   7.2266666666666657E-005    -7.8944335006104191E-002
   7.2466666666666662E-005    -6.5898094365397147E-002
   7.2666666666666667E-005    -4.8719666312302408E-002
   7.2866666666666658E-005    -2.8052958753874827E-002
   7.3066666666666663E-005    -4.7500903845180600E-003
   7.3266666666666654E-005     2.0165707197744309E-002
   7.3466666666666659E-005     4.5547170919138319E-002
   7.3666666666666664E-005     7.0177717114132662E-002
   7.3866666666666655E-005     9.2830985002758756E-002
   7.4066666666666660E-005    0.11233228196111684     
   7.4266666666666665E-005    0.12761880286290689     
   7.4466666666666656E-005    0.13779563431281566     
   7.4666666666666661E-005    0.14218466399209129     
   7.4866666666666666E-005    0.14036391307534077     
   7.5066666666666657E-005    0.13219516235634554     
   7.5266666666666662E-005    0.11783832803183901     
   7.5466666666666653E-005     9.7751644594275974E-002