  -3.3333333333333335E-005     0.0000000000000000     
  -3.3133333333333337E-005     0.0000000000000000     
  -3.2933333333333332E-005     0.0000000000000000     
  -3.2733333333333334E-005     0.0000000000000000     
  -3.2533333333333336E-005     0.0000000000000000     
  -3.2333333333333338E-005     0.0000000000000000     
  -3.2133333333333333E-005     0.0000000000000000     
  -3.1933333333333335E-005     0.0000000000000000     
  -3.1733333333333337E-005     0.0000000000000000     
  -3.1533333333333332E-005     0.0000000000000000     
  -3.1333333333333334E-005     0.0000000000000000     
  -3.1133333333333336E-005     0.0000000000000000     
  -3.0933333333333338E-005     0.0000000000000000     
  -3.0733333333333333E-005     0.0000000000000000     
  -3.0533333333333335E-005     0.0000000000000000     
  -3.0333333333333337E-005     0.0000000000000000     
  -3.0133333333333335E-005     0.0000000000000000     
  -2.9933333333333334E-005     0.0000000000000000     
  -2.9733333333333336E-005     0.0000000000000000     
  -2.9533333333333334E-005     0.0000000000000000     
  -2.9333333333333336E-005     0.0000000000000000     
  -2.9133333333333334E-005     0.0000000000000000     
  -2.8933333333333336E-005     0.0000000000000000     
  -2.8733333333333335E-005     0.0000000000000000     
  -2.8533333333333333E-005     0.0000000000000000     
  -2.8333333333333335E-005     0.0000000000000000     
  -2.8133333333333337E-005     0.0000000000000000     
  -2.7933333333333336E-005     0.0000000000000000     
  -2.7733333333333334E-005     0.0000000000000000     
  -2.7533333333333336E-005     0.0000000000000000     
  -2.7333333333333335E-005     0.0000000000000000     
  -2.7133333333333333E-005     0.0000000000000000     
  -2.6933333333333335E-005     0.0000000000000000     
  -2.6733333333333337E-005     0.0000000000000000     
  -2.6533333333333336E-005     0.0000000000000000     
  -2.6333333333333334E-005     0.0000000000000000     
  -2.6133333333333336E-005     0.0000000000000000     
  -2.5933333333333335E-005     0.0000000000000000     
  -2.5733333333333333E-005     0.0000000000000000     
  -2.5533333333333335E-005     0.0000000000000000     
  -2.5333333333333337E-005     0.0000000000000000     
  -2.5133333333333336E-005     0.0000000000000000     
  -2.4933333333333334E-005     0.0000000000000000     
  -2.4733333333333336E-005     0.0000000000000000     
  -2.4533333333333334E-005     0.0000000000000000     
  -2.4333333333333333E-005     0.0000000000000000     
  -2.4133333333333335E-005     0.0000000000000000     
  -2.3933333333333337E-005     0.0000000000000000     
  -2.3733333333333335E-005     0.0000000000000000     
  -2.3533333333333334E-005     0.0000000000000000     
  -2.3333333333333336E-005     0.0000000000000000     
  -2.3133333333333338E-005     0.0000000000000000     
  -2.2933333333333336E-005     0.0000000000000000     
  -2.2733333333333335E-005     0.0000000000000000     
  -2.2533333333333337E-005     0.0000000000000000     
  -2.2333333333333335E-005     0.0000000000000000     
  -2.2133333333333334E-005     0.0000000000000000     
  -2.1933333333333336E-005     0.0000000000000000     
  -2.1733333333333338E-005     0.0000000000000000     
  -2.1533333333333336E-005     0.0000000000000000     
  -2.1333333333333335E-005     0.0000000000000000     
  -2.1133333333333337E-005     0.0000000000000000     
  -2.0933333333333335E-005     0.0000000000000000     
  -2.0733333333333334E-005     0.0000000000000000     
  -2.0533333333333336E-005     0.0000000000000000     
  -2.0333333333333337E-005     0.0000000000000000     
  -2.0133333333333336E-005     0.0000000000000000     
  -1.9933333333333334E-005     0.0000000000000000     
  -1.9733333333333336E-005     0.0000000000000000     
  -1.9533333333333335E-005     0.0000000000000000     
  -1.9333333333333333E-005     0.0000000000000000     
  -1.9133333333333335E-005     0.0000000000000000     
  -1.8933333333333337E-005    -1.8920237613860055E-040
  -1.8733333333333336E-005    -4.7142853150488600E-040
  -1.8533333333333334E-005    -7.2285197402686244E-040
  -1.8333333333333336E-005    -4.9733285216858577E-040
  -1.8133333333333335E-005     6.3322558835798571E-040
  -1.7933333333333337E-005     3.0497000676045261E-039
  -1.7733333333333335E-005     6.7391621101684372E-039
  -1.7533333333333337E-005     2.1964779069307884E-038
  -1.7333333333333336E-005     4.8325804779801860E-038
  -1.7133333333333334E-005     8.2860302328123800E-038
  -1.6933333333333336E-005     1.1304834810136548E-037
  -1.6733333333333335E-005     1.0144906231435209E-037
  -1.6533333333333337E-005    -1.9447959567904343E-038
  -1.6333333333333335E-005    -3.4415120491171322E-037
  -1.6133333333333337E-005    -9.9032179174347189E-037
  -1.5933333333333336E-005    -2.0603361318734878E-036
  -1.5733333333333334E-005    -3.5118547165641110E-036
  -1.5533333333333336E-005    -4.9608795958870246E-036
  -1.5333333333333334E-005    -5.3825657948364524E-036
  -1.5133333333333336E-005    -2.8166247157345975E-036
  -1.4933333333333335E-005     5.7287228336508683E-036
  -1.4733333333333337E-005     2.3762601908737953E-035
  -1.4533333333333335E-005     5.3648474902954471E-035
  -1.4333333333333337E-005     9.3141896406557048E-035
  -1.4133333333333336E-005     1.3010718840813805E-034
  -1.3933333333333334E-005     1.3640077014364098E-034
  -1.3733333333333336E-005     6.4202931364514506E-035
  -1.3533333333333335E-005    -1.4902219707864091E-034
  -1.3333333333333337E-005    -5.5817718490175118E-034
  -1.3133333333333335E-005    -1.1622686988371725E-033
  -1.2933333333333337E-005    -1.8285600907048345E-033
  -1.2733333333333336E-005    -2.2051083114375158E-033
  -1.2533333333333338E-005    -1.6680191371529378E-033
  -1.2333333333333336E-005     6.1196654112223583E-034
  -1.2133333333333335E-005     5.3698346331936049E-033
  -1.1933333333333337E-005     1.2613325931314258E-032
  -1.1733333333333335E-005     2.0659227371926737E-032
  -1.1533333333333337E-005     2.5078598216932046E-032
  -1.1333333333333336E-005     1.8169645335252421E-032
  -1.1133333333333337E-005    -9.9834938718963753E-033
  -1.0933333333333336E-005    -6.7535110960937119E-032
  -1.0733333333333334E-005    -1.5294702311529288E-031
  -1.0533333333333336E-005    -2.4343235957690702E-031
  -1.0333333333333335E-005    -2.8296394647178395E-031
  -1.0133333333333337E-005    -1.7731619503641787E-031
  -9.9333333333333354E-006     1.9177692149890016E-031
  -9.7333333333333373E-006     9.1892016854882816E-031
  -9.5333333333333358E-006     1.9834967651280955E-030
  -9.3333333333333343E-006     3.1194682694608173E-030
  -9.1333333333333362E-006     3.6821816806060314E-030
  -8.9333333333333348E-006     2.5913562193781442E-030
  -8.7333333333333367E-006    -1.5258115520498333E-030
  -8.5333333333333352E-006    -9.8470820552633447E-030
  -8.3333333333333371E-006    -2.2421764023471647E-029
  -8.1333333333333356E-006    -3.6839766768558450E-029
  -7.9333333333333376E-006    -4.6834923684867665E-029
  -7.7333333333333361E-006    -4.1550215750616589E-029
  -7.5333333333333346E-006    -6.5924560653021834E-030
  -7.3333333333333365E-006     7.1811792037876153E-029
  -7.1333333333333351E-006     1.9860032211909525E-028
  -6.9333333333333370E-006     3.5787353116379192E-028
  -6.7333333333333355E-006     4.9969577960109582E-028
  -6.5333333333333374E-006     5.3149509756481324E-028
  -6.3333333333333359E-006     3.2310953323136348E-028
  -6.1333333333333379E-006    -2.6382768402815922E-028
  -5.9333333333333364E-006    -1.3138084405577851E-027
  -5.7333333333333349E-006    -2.7630947638790494E-027
  -5.5333333333333368E-006    -4.2901332530784006E-027
  -5.3333333333333354E-006    -5.2309455888227186E-027
  -5.1333333333333373E-006    -4.5836192855507702E-027
  -4.9333333333333358E-006    -1.1796233094185806E-027
  -4.7333333333333377E-006     5.9127147555839312E-027
  -4.5333333333333362E-006     1.6741686163596476E-026
  -4.3333333333333348E-006     2.9677606566215437E-026
  -4.1333333333333367E-006     4.0714675292546517E-026
  -3.9333333333333352E-006     4.3272571909923127E-026
  -3.7333333333333371E-006     2.9002008034006356E-026
  -3.5333333333333356E-006    -9.9513726996710512E-027
  -3.3333333333333376E-006    -7.7067032907693828E-026
  -3.1333333333333361E-006    -1.6639759656172957E-025
  -2.9333333333333346E-006    -2.5765745409734950E-025
  -2.7333333333333365E-006    -3.1371505674255948E-025
  -2.5333333333333384E-006    -2.8342129959883899E-025
  -2.3333333333333336E-006    -1.1259002341546867E-025
  -2.1333333333333355E-006     2.3548085009869394E-025
  -1.9333333333333374E-006     7.5162952658014872E-025
  -1.7333333333333393E-006     1.3508380935441048E-024
  -1.5333333333333345E-006     1.8520324254407485E-024
  -1.3333333333333364E-006     1.9830432224577874E-024
  -1.1333333333333383E-006     1.4263809710763677E-024
  -9.3333333333333343E-007    -8.4593750068028942E-026
  -7.3333333333333535E-007    -2.6236775656130842E-024
  -5.3333333333333726E-007    -5.9103759302595509E-024
  -3.3333333333333918E-007    -9.1808700886200069E-024
  -1.3333333333333432E-007    -1.1164456853943461E-023
   6.6666666666663770E-008    -1.0243977170178267E-023
   2.6666666666666185E-007    -4.8561814718881119E-024
   4.6666666666666672E-007     5.8711840767758871E-024
   6.6666666666666480E-007     2.1343889690598316E-023
   8.6666666666666289E-007     3.8801095885885730E-023
   1.0666666666666610E-006     5.3006902841795888E-023
   1.2666666666666658E-006     5.6691716109603828E-023
   1.4666666666666639E-006     4.2029651999018506E-023
   1.6666666666666620E-006     3.2135641032329610E-024
   1.8666666666666669E-006    -6.0191124997594585E-023
   2.0666666666666649E-006    -1.3991289379634868E-022
   2.2666666666666630E-006    -2.1691358827835651E-022
   2.4666666666666611E-006    -2.6209407060731106E-022
   2.6666666666666660E-006    -2.4107523833398346E-022
   2.8666666666666641E-006    -1.2358959686416995E-022
   3.0666666666666622E-006     1.0337989515889130E-022
   3.2666666666666602E-006     4.2141914159525812E-022
   3.4666666666666651E-006     7.7000846124836762E-022
   3.6666666666666632E-006     1.0450689571233649E-021
   3.8666666666666613E-006     1.1121495293570996E-021
   4.0666666666666661E-006     8.3726933160423300E-022
   4.2666666666666642E-006     1.3369904957900093E-022
   4.4666666666666623E-006    -9.8356843416488157E-022
   4.6666666666666604E-006    -2.3508069148340905E-021
   4.8666666666666652E-006    -3.6361352410908346E-021
   5.0666666666666633E-006    -4.3681597116620103E-021
   5.2666666666666614E-006    -4.0264978834017500E-021
   5.4666666666666663E-006    -2.1932709900739875E-021
   5.6666666666666644E-006     1.2567929213820070E-021
   5.8666666666666624E-006     5.9738780182609473E-021
   6.0666666666666605E-006     1.1023612300715552E-020
   6.2666666666666654E-006     1.4921592825085103E-020
   6.4666666666666635E-006     1.5866833715708395E-020
   6.6666666666666616E-006     1.2187057065250361E-020
   6.8666666666666664E-006     2.9434993530453191E-021
   7.0666666666666645E-006    -1.1433685912582726E-020
   7.2666666666666626E-006    -2.8675343459736191E-020
   7.4666666666666607E-006    -4.4595150055194014E-020
   7.6666666666666655E-006    -5.3598404912650556E-020
   7.8666666666666636E-006    -4.9863446003445786E-020
   8.0666666666666617E-006    -2.9097414236428400E-020
   8.2666666666666598E-006     9.4597650677448757E-021
   8.4666666666666647E-006     6.1324347991261278E-020
   8.6666666666666627E-006     1.1601825941575091E-019
   8.8666666666666608E-006     1.5790692172559912E-019
   9.0666666666666657E-006     1.6899520994701777E-019
   9.2666666666666638E-006     1.3357231465130074E-019
   9.4666666666666619E-006     4.3966642055399320E-020
   9.6666666666666599E-006    -9.3965141262041762E-020
   9.8666666666666648E-006    -2.5743113635952019E-019
   1.0066666666666663E-005    -4.0722654630347885E-019
   1.0266666666666661E-005    -4.9349151743857758E-019
   1.0466666666666666E-005    -4.6686013457011885E-019
   1.0666666666666664E-005    -2.9353846717891823E-019
   1.0866666666666662E-005     2.8890780990522318E-020
   1.1066666666666660E-005     4.5950354450629079E-019
   1.1266666666666665E-005     9.1089934642338045E-019
   1.1466666666666663E-005     1.2589183218954743E-018
   1.1666666666666661E-005     1.3666900661896411E-018
   1.1866666666666666E-005     1.1206486230054784E-018
   1.2066666666666664E-005     4.7172716389908754E-019
   1.2266666666666662E-005    -5.2885060031241565E-019
   1.2466666666666660E-005    -1.7115947913393030E-018
   1.2666666666666665E-005    -2.7996602276642686E-018
   1.2866666666666663E-005    -3.4546071089342289E-018
   1.3066666666666661E-005    -3.3544815197774038E-018
   1.3266666666666666E-005    -2.2913148343579167E-018
   1.3466666666666664E-005    -2.6548050624661890E-019
   1.3666666666666662E-005     2.4515298323823884E-018
   1.3866666666666660E-005     5.3134898893330923E-018
   1.4066666666666665E-005     7.5733214327273386E-018
   1.4266666666666663E-005     8.4354678546748543E-018
   1.4466666666666661E-005     7.2652173617047828E-018
   1.4666666666666666E-005     3.8108757550966664E-018
   1.4866666666666664E-005    -1.6211172802407134E-018
   1.5066666666666662E-005    -8.1007048026624766E-018
   1.5266666666666661E-005    -1.4166027919576443E-017
   1.5466666666666665E-005    -1.8087527669495008E-017
   1.5666666666666663E-005    -1.8273900410500643E-017
   1.5866666666666662E-005    -1.3741220295880847E-017
   1.6066666666666660E-005    -4.5290362682484543E-018
   1.6266666666666665E-005     8.0659068427940925E-018
   1.6466666666666663E-005     2.1546795483166197E-017
   1.6666666666666661E-005     3.2616034898035339E-017
   1.6866666666666666E-005     3.7882881333520134E-017
   1.7066666666666664E-005     3.4750700613228840E-017
   1.7266666666666662E-005     2.2276035416359110E-017
   1.7466666666666660E-005     1.7551181671788617E-018
   1.7666666666666665E-005    -2.3180766151207719E-017
   1.7866666666666663E-005    -4.7085196607478871E-017
   1.8066666666666661E-005    -6.3806207268878879E-017
   1.8266666666666666E-005    -6.7987386910654700E-017
   1.8466666666666664E-005    -5.6612754881897126E-017
   1.8666666666666662E-005    -3.0170852372895402E-017
   1.8866666666666660E-005     6.9536920335565262E-018
   1.9066666666666665E-005     4.7098558250920632E-017
   1.9266666666666663E-005     8.0935595134799498E-017
   1.9466666666666661E-005     9.9764811617390706E-017
   1.9666666666666666E-005     9.7924303859497306E-017
   1.9866666666666664E-005     7.4622724193743795E-017
   2.0066666666666662E-005     3.4564546661583187E-017
   2.0266666666666660E-005    -1.2989596364713516E-017
   2.0466666666666665E-005    -5.6649159680854682E-017
   2.0666666666666663E-005    -8.6236678064396208E-017
   2.0866666666666661E-005    -9.6077385092617425E-017
   2.1066666666666659E-005    -8.7107965081691079E-017
   2.1266666666666664E-005    -6.6865447950965374E-017
   2.1466666666666662E-005    -4.6969234487571115E-017
   2.1666666666666660E-005    -3.8517172605678117E-017
   2.1866666666666665E-005    -4.6673368924115714E-017
   2.2066666666666663E-005    -6.6345791282166052E-017
   2.2266666666666661E-005    -8.0965385548332536E-017
   2.2466666666666659E-005    -6.5811380008619983E-017
   2.2666666666666664E-005     3.9112417485801802E-018
   2.2866666666666662E-005     1.4171060734966917E-016
   2.3066666666666660E-005     3.3829721441496434E-016
   2.3266666666666665E-005     5.5414927044597568E-016
   2.3466666666666663E-005     7.2036246384196618E-016
   2.3666666666666661E-005     7.5054609121669868E-016
   2.3866666666666660E-005     5.6369846978440121E-016
   2.4066666666666664E-005     1.1429645239642774E-016
   2.4266666666666662E-005    -5.7780677533073290E-016
   2.4466666666666661E-005    -1.4074800195884626E-015
   2.4666666666666665E-005    -2.1842530266349531E-015
   2.4866666666666663E-005    -2.6589037120623802E-015
   2.5066666666666662E-005    -2.5774348773343988E-015
   2.5266666666666660E-005    -1.7550482256976160E-015
   2.5466666666666665E-005    -1.5439239007927194E-016
   2.5666666666666663E-005     2.0537190843905465E-015
   2.5866666666666661E-005     4.4703421134915682E-015
   2.6066666666666666E-005     6.5074316506956679E-015
   2.6266666666666664E-005     7.4924278171146290E-015
   2.6466666666666662E-005     6.8281373012410141E-015
   2.6666666666666660E-005     4.1791219666823528E-015
   2.6866666666666665E-005    -3.5965823557344856E-016
   2.7066666666666663E-005    -6.1633557737067067E-015
   2.7266666666666661E-005    -1.2093132511952075E-014
   2.7466666666666666E-005    -1.6654366144527951E-014
   2.7666666666666664E-005    -1.8292497087289518E-014
   2.7866666666666662E-005    -1.5783555810398039E-014
   2.8066666666666667E-005    -8.6401266603116766E-015
   2.8266666666666658E-005     2.5703244533090588E-015
   2.8466666666666663E-005     1.6100091630483524E-014
   2.8666666666666668E-005     2.9168982953896088E-014
   2.8866666666666659E-005     3.8413160042845367E-014
   2.9066666666666664E-005     4.0591506329955091E-014
   2.9266666666666669E-005     3.3429407122737469E-014
   2.9466666666666660E-005     1.6417025071017992E-014
   2.9666666666666665E-005    -8.6503984781508380E-015
   2.9866666666666656E-005    -3.7584427999609205E-014
   3.0066666666666661E-005    -6.4290035666974672E-014
   3.0266666666666666E-005    -8.1831492636466597E-014
   3.0466666666666657E-005    -8.3938345379847388E-014
   3.0666666666666662E-005    -6.6673050650036180E-014
   3.0866666666666667E-005    -2.9884869876589245E-014
   3.1066666666666658E-005     2.1950211090293906E-014
   3.1266666666666663E-005     7.9833292182936907E-014
   3.1466666666666668E-005     1.3145531421440495E-013
   3.1666666666666659E-005     1.6344645438915359E-013
   3.1866666666666664E-005     1.6432532176465658E-013
   3.2066666666666656E-005     1.2757806922363587E-013
   3.2266666666666660E-005     5.4159012370469687E-014
   3.2466666666666665E-005    -4.6289165174056457E-014
   3.2666666666666657E-005    -1.5602156954265084E-013
   3.2866666666666661E-005    -2.5177731140077539E-013
   3.3066666666666666E-005    -3.0912182770898515E-013
   3.3266666666666658E-005    -3.0784764634141933E-013
   3.3466666666666662E-005    -2.3736521915256816E-013
   3.3666666666666667E-005    -1.0083639740703863E-013
   3.3866666666666659E-005     8.3117457665093628E-014
   3.4066666666666664E-005     2.8193515218711061E-013
   3.4266666666666668E-005     4.5405601185646975E-013
   3.4466666666666660E-005     5.5672105382216884E-013
   3.4666666666666665E-005     5.5533414447995891E-013
   3.4866666666666656E-005     4.3251933034560036E-013
   3.5066666666666661E-005     1.9479143808861203E-013
   3.5266666666666666E-005    -1.2503009660501729E-013
   3.5466666666666657E-005    -4.7086015046775101E-013
   3.5666666666666662E-005    -7.7199894116764829E-013
   3.5866666666666667E-005    -9.5632508852803789E-013
   3.6066666666666658E-005    -9.6579665266761695E-013
   3.6266666666666663E-005    -7.7119250499754586E-013
   3.6466666666666668E-005    -3.8275277091729170E-013
   3.6666666666666659E-005     1.4619306186955262E-013
   3.6866666666666664E-005     7.2439664006137073E-013
   3.7066666666666669E-005     1.2367735893063327E-012
   3.7266666666666660E-005     1.5655942138129968E-012
   3.7466666666666665E-005     1.6151916285229542E-012
   3.7666666666666656E-005     1.3353619538386306E-012
   3.7866666666666661E-005     7.3827104000630378E-013
   3.8066666666666666E-005    -9.5600899867983944E-014
   3.8266666666666657E-005    -1.0251863287893708E-012
   3.8466666666666662E-005    -1.8703699565810015E-012
   3.8666666666666667E-005    -2.4445693308425144E-012
   3.8866666666666658E-005    -2.5928955224885418E-012
   3.9066666666666663E-005    -2.2285774381401480E-012
   3.9266666666666668E-005    -1.3597854373061489E-012
   3.9466666666666659E-005    -1.0004513450138120E-013
   3.9666666666666664E-005     1.3419573113175345E-012
   3.9866666666666655E-005     2.6935917423456731E-012
   4.0066666666666660E-005     3.6665912715560767E-012
   4.0266666666666665E-005     4.0145097546034668E-012
   4.0466666666666656E-005     3.5885345950149771E-012
   4.0666666666666661E-005     2.3799483733307015E-012
   4.0866666666666666E-005     5.3889778217258809E-013
   4.1066666666666657E-005    -1.6371794794381986E-012
   4.1266666666666662E-005    -3.7466580026655570E-012
   4.1466666666666667E-005    -5.3532051873221768E-012
   4.1666666666666658E-005    -6.0704827504184280E-012
   4.1866666666666663E-005    -5.6465624311474665E-012
   4.2066666666666668E-005    -4.0307871272829991E-012
   4.2266666666666660E-005    -1.4074997165547429E-012
   4.2466666666666664E-005     1.8139907836657764E-012
   4.2666666666666656E-005     5.0561060961522233E-012
   4.2866666666666661E-005     7.6701274181023407E-012
   4.3066666666666665E-005     9.0586170899674773E-012
   4.3266666666666657E-005     8.8012481298840528E-012
   4.3466666666666662E-005     6.7590191765208874E-012
   4.3666666666666666E-005     3.1335289068292464E-012
   4.3866666666666658E-005    -1.5355332471653339E-012
   4.4066666666666663E-005    -6.4408418489983575E-012
   4.4266666666666667E-005    -1.0639019459286236E-011
   4.4466666666666659E-005    -1.3223500509830111E-011
   4.4666666666666664E-005    -1.3508459831816310E-011
   4.4866666666666655E-005    -1.1188188122357774E-011
   4.5066666666666660E-005    -6.4375585223330916E-012
   4.5266666666666665E-005     7.2541608598432332E-014
   4.5466666666666656E-005     7.2566043617372798E-012
   4.5666666666666661E-005     1.3786307736208975E-011
   4.5866666666666666E-005     1.8327643791594475E-011
   4.6066666666666657E-005     1.9802742002786999E-011
   4.6266666666666662E-005     1.7626820747927974E-011
   4.6466666666666667E-005     1.1870829789592917E-011
   4.6666666666666658E-005     3.3103491503331072E-012
   4.6866666666666663E-005    -6.6598130112867161E-012
   4.7066666666666668E-005    -1.6241122742996188E-011
   4.7266666666666659E-005    -2.3546484843397803E-011
   4.7466666666666664E-005    -2.6961988042230165E-011
   4.7666666666666655E-005    -2.5488015051918523E-011
   4.7866666666666660E-005    -1.8990494700813831E-011
   4.8066666666666665E-005    -8.3045845590235145E-012
   4.8266666666666656E-005     4.8429002981343685E-012
   4.8466666666666661E-005     1.8093100921815721E-011
   4.8666666666666666E-005     2.8861721237971192E-011
   4.8866666666666657E-005     3.4825550459408436E-011
   4.9066666666666662E-005     3.4400299586023243E-011
   4.9266666666666667E-005     2.7115320729343404E-011
   4.9466666666666658E-005     1.3803181188071430E-011
   4.9666666666666663E-005    -3.4487069571338673E-012
   4.9866666666666655E-005    -2.1594766511739262E-011
   5.0066666666666659E-005    -3.7139207741347714E-011
   5.0266666666666664E-005    -4.6774008623865664E-011
   5.0466666666666656E-005    -4.8034024453278359E-011
   5.0666666666666660E-005    -3.9844341142912563E-011
   5.0866666666666665E-005    -2.2846177999211126E-011
   5.1066666666666657E-005     5.7817526623456452E-013
   5.1266666666666661E-005     2.6608911409051583E-011
   5.1466666666666666E-005     5.0587349570625626E-011
   5.1666666666666658E-005     6.7817494234901334E-011
   5.1866666666666662E-005     7.4433576283890381E-011
   5.2066666666666667E-005     6.8174830954873484E-011
   5.2266666666666659E-005     4.8916653217283006E-011
   5.2466666666666664E-005     1.8843730068202855E-011
   5.2666666666666655E-005    -1.7788068980769124E-011
   5.2866666666666660E-005    -5.5279795605424929E-011
   5.3066666666666665E-005    -8.7411577564177552E-011
   5.3266666666666656E-005    -1.0850252765398409E-010
   5.3466666666666661E-005    -1.1441896217664309E-010
   5.3666666666666666E-005    -1.0334234196401040E-010
   5.3866666666666657E-005    -7.6146886382443818E-011
   5.4066666666666662E-005    -3.6304849136084492E-011
   5.4266666666666667E-005     1.0674510057832442E-011
   5.4466666666666658E-005     5.8175877661029410E-011
   5.4666666666666663E-005     9.9607364730252838E-011
   5.4866666666666668E-005     1.2951229723048708E-010
   5.5066666666666659E-005     1.4444547675080512E-010
   5.5266666666666664E-005     1.4343744247504642E-010
   5.5466666666666655E-005     1.2795054220132177E-010
   5.5666666666666660E-005     1.0133638045010966E-010
   5.5866666666666665E-005     6.7912101935625509E-011
   5.6066666666666656E-005     3.1863817545011890E-011
   5.6266666666666661E-005    -3.7635539748366148E-012
   5.6466666666666666E-005    -3.7733368694904637E-011
   5.6666666666666657E-005    -7.0744632938858801E-011
   5.6866666666666662E-005    -1.0493324128477572E-010
   5.7066666666666667E-005    -1.4280334346342474E-010
   5.7266666666666658E-005    -1.8579217263779185E-010
   5.7466666666666663E-005    -2.3279131127317538E-010
   5.7666666666666654E-005    -2.7901295697721047E-010
   5.7866666666666659E-005    -3.1557767391625784E-010
   5.8066666666666664E-005    -3.3010319677024343E-010
   5.8266666666666655E-005    -3.0840231373296601E-010
   5.8466666666666660E-005    -2.3717328071761801E-010
   5.8666666666666665E-005    -1.0733008373073428E-010
   5.8866666666666656E-005     8.2584539626997350E-011
   5.9066666666666661E-005     3.2358771947377664E-010
   5.9266666666666666E-005     5.9474340781889445E-010
   5.9466666666666657E-005     8.6352708577233746E-010
   5.9666666666666662E-005     1.0884011014323925E-009
   5.9866666666666667E-005     1.2235873133554535E-009
   6.0066666666666659E-005     1.2256290513124124E-009
   6.0266666666666663E-005     1.0609513095993280E-009
   6.0466666666666655E-005     7.1333227851631496E-010
   6.0666666666666660E-005     1.9004393095104463E-010
   6.0866666666666664E-005    -4.7454486826618650E-010
   6.1066666666666656E-005    -1.2188740464308666E-009
   6.1266666666666661E-005    -1.9581563797814864E-009
   6.1466666666666665E-005    -2.5923970997591392E-009
   6.1666666666666657E-005    -3.0178487508553534E-009
   6.1866666666666662E-005    -3.1407054545065943E-009
   6.2066666666666666E-005    -2.8913763157336726E-009
   6.2266666666666658E-005    -2.2374288318645691E-009
   6.2466666666666663E-005    -1.1932811849157877E-009
   6.2666666666666668E-005     1.7500789804707098E-010
   6.2866666666666659E-005     1.7510000084260623E-009
   6.3066666666666664E-005     3.3756454839869044E-009
   6.3266666666666655E-005     4.8612205762770975E-009
   6.3466666666666660E-005     6.0103140004914939E-009
   6.3666666666666665E-005     6.6380494287942403E-009
   6.3866666666666656E-005     6.5952340057470232E-009
   6.4066666666666661E-005     5.7898759200921801E-009
   6.4266666666666666E-005     4.2045214848533733E-009
   6.4466666666666657E-005     1.9071784954984405E-009
   6.4666666666666662E-005    -9.4589859232848730E-010
   6.4866666666666667E-005    -4.1165594061364931E-009
   6.5066666666666658E-005    -7.3004206612194999E-009
   6.5266666666666663E-005    -1.0151140661274662E-008
   6.5466666666666654E-005    -1.2311759077318288E-008
   6.5666666666666659E-005    -1.3450773441959231E-008
   6.5866666666666664E-005    -1.3299982307194982E-008
   6.6066666666666655E-005    -1.1690679063700777E-008
   6.6266666666666660E-005    -8.5844964387240885E-009
   6.6466666666666665E-005    -4.0952660686732244E-009
   6.6666666666666656E-005     1.5014690078166089E-009
   6.6866666666666661E-005     7.7739497923268604E-009
   6.7066666666666666E-005     1.4156389634284935E-008
   6.7266666666666657E-005     1.9988168059026703E-008
   6.7466666666666662E-005     2.4568709614534629E-008
   6.7666666666666667E-005     2.7224912504146991E-008
   6.7866666666666658E-005     2.7386113673608904E-008
   6.8066666666666663E-005     2.4659946028904423E-008
   6.8266666666666655E-005     1.8901143380922688E-008
   6.8466666666666659E-005     1.0264737543254413E-008
   6.8666666666666664E-005    -7.6463732511121312E-010
   6.8866666666666656E-005    -1.3374387437923934E-008
   6.9066666666666660E-005    -2.6461344507351293E-008
   6.9266666666666665E-005    -3.8706384450980821E-008
   6.9466666666666657E-005    -4.8683865492065514E-008
   6.9666666666666661E-005    -5.4999093920511528E-008
   6.9866666666666666E-005    -5.6442877965277941E-008
   7.0066666666666658E-005    -5.2148506249151903E-008
   7.0266666666666662E-005    -4.1734252103271259E-008
   7.0466666666666654E-005    -2.5413535774495579E-008
   7.0666666666666659E-005    -4.0561514899608368E-009
   7.0866666666666664E-005     2.0812934739340650E-008
   7.1066666666666655E-005     4.7085395726849730E-008
   7.1266666666666660E-005     7.2213512142446064E-008
   7.1466666666666665E-005     9.3420048726065036E-008
   7.1666666666666656E-005     1.0795977594249261E-007
   7.1866666666666661E-005     1.1341107177375134E-007
   7.2066666666666666E-005     1.0797031635409538E-007
   7.2266666666666657E-005     9.0718245971384048E-008
   7.2466666666666662E-005     6.1827090851624975E-008
   7.2666666666666667E-005     2.2680093911434757E-008
   7.2866666666666658E-005    -2.4119017227893680E-008
   7.3066666666666663E-005    -7.4859783538590297E-008
   7.3266666666666654E-005    -1.2496413962564297E-007
   7.3466666666666659E-005    -1.6934038025428142E-007
   7.3666666666666664E-005    -2.0282889320421539E-007
   7.3866666666666655E-005    -2.2070516687856596E-007
   7.4066666666666660E-005    -2.1919656014220732E-007
   7.4266666666666665E-005    -1.9596356629397817E-007
   7.4466666666666656E-005    -1.5049537886243650E-007
   7.4666666666666661E-005    -8.4372565416285824E-008
   7.4866666666666666E-005    -1.3580799011513381E-009
   7.5066666666666657E-005     9.2709733668390521E-008
   7.5266666666666662E-005     1.9023252951341258E-007
   7.5466666666666653E-005     2.8236756255060318E-007