  -3.3333333333333335E-005     0.0000000000000000     
  -3.3133333333333337E-005     0.0000000000000000     
  -3.2933333333333332E-005     0.0000000000000000     
  -3.2733333333333334E-005     0.0000000000000000     
  -3.2533333333333336E-005     0.0000000000000000     
  -3.2333333333333338E-005     0.0000000000000000     
  -3.2133333333333333E-005     0.0000000000000000     
  -3.1933333333333335E-005     0.0000000000000000     
  -3.1733333333333337E-005     0.0000000000000000     
  -3.1533333333333332E-005     0.0000000000000000     
  -3.1333333333333334E-005     0.0000000000000000     
  -3.1133333333333336E-005     0.0000000000000000     
  -3.0933333333333338E-005     0.0000000000000000     
  -3.0733333333333333E-005     0.0000000000000000     
  -3.0533333333333335E-005     0.0000000000000000     
  -3.0333333333333337E-005     0.0000000000000000     
  -3.0133333333333335E-005     0.0000000000000000     
  -2.9933333333333334E-005     0.0000000000000000     
  -2.9733333333333336E-005     0.0000000000000000     
  -2.9533333333333334E-005     0.0000000000000000     
  -2.9333333333333336E-005     0.0000000000000000     
  -2.9133333333333334E-005     0.0000000000000000     
  -2.8933333333333336E-005     0.0000000000000000     
  -2.8733333333333335E-005     0.0000000000000000     
  -2.8533333333333333E-005     0.0000000000000000     
  -2.8333333333333335E-005     0.0000000000000000     
  -2.8133333333333337E-005     0.0000000000000000     
  -2.7933333333333336E-005     0.0000000000000000     
  -2.7733333333333334E-005     0.0000000000000000     
  -2.7533333333333336E-005     0.0000000000000000     
  -2.7333333333333335E-005     0.0000000000000000     
  -2.7133333333333333E-005     0.0000000000000000     
  -2.6933333333333335E-005     0.0000000000000000     
  -2.6733333333333337E-005     0.0000000000000000     
  -2.6533333333333336E-005     0.0000000000000000     
  -2.6333333333333334E-005     0.0000000000000000     
  -2.6133333333333336E-005     0.0000000000000000     
  -2.5933333333333335E-005     0.0000000000000000     
  -2.5733333333333333E-005     0.0000000000000000     
  -2.5533333333333335E-005     0.0000000000000000     
  -2.5333333333333337E-005     0.0000000000000000     
  -2.5133333333333336E-005     0.0000000000000000     
  -2.4933333333333334E-005     0.0000000000000000     
  -2.4733333333333336E-005     0.0000000000000000     
  -2.4533333333333334E-005     0.0000000000000000     
  -2.4333333333333333E-005     0.0000000000000000     
  -2.4133333333333335E-005     0.0000000000000000     
  -2.3933333333333337E-005     0.0000000000000000     
  -2.3733333333333335E-005     0.0000000000000000     
  -2.3533333333333334E-005     0.0000000000000000     
  -2.3333333333333336E-005     0.0000000000000000     
  -2.3133333333333338E-005     0.0000000000000000     
  -2.2933333333333336E-005     0.0000000000000000     
  -2.2733333333333335E-005     0.0000000000000000     
  -2.2533333333333337E-005     0.0000000000000000     
  -2.2333333333333335E-005     0.0000000000000000     
  -2.2133333333333334E-005     0.0000000000000000     
  -2.1933333333333336E-005     0.0000000000000000     
  -2.1733333333333338E-005     0.0000000000000000     
  -2.1533333333333336E-005     0.0000000000000000     
  -2.1333333333333335E-005     0.0000000000000000     
  -2.1133333333333337E-005     0.0000000000000000     
  -2.0933333333333335E-005     0.0000000000000000     
  -2.0733333333333334E-005     0.0000000000000000     
  -2.0533333333333336E-005     0.0000000000000000     
  -2.0333333333333337E-005     0.0000000000000000     
  -2.0133333333333336E-005     0.0000000000000000     
  -1.9933333333333334E-005     0.0000000000000000     
  -1.9733333333333336E-005     0.0000000000000000     
  -1.9533333333333335E-005     0.0000000000000000     
  -1.9333333333333333E-005     0.0000000000000000     
  -1.9133333333333335E-005     0.0000000000000000     
  -1.8933333333333337E-005     0.0000000000000000     
  -1.8733333333333336E-005     0.0000000000000000     
  -1.8533333333333334E-005     0.0000000000000000     
  -1.8333333333333336E-005     0.0000000000000000     
  -1.8133333333333335E-005     0.0000000000000000     
  -1.7933333333333337E-005     0.0000000000000000     
  -1.7733333333333335E-005     0.0000000000000000     
  -1.7533333333333337E-005     0.0000000000000000     
  -1.7333333333333336E-005     0.0000000000000000     
  -1.7133333333333334E-005     0.0000000000000000     
  -1.6933333333333336E-005     0.0000000000000000     
  -1.6733333333333335E-005     0.0000000000000000     
  -1.6533333333333337E-005     0.0000000000000000     
  -1.6333333333333335E-005     0.0000000000000000     
  -1.6133333333333337E-005     0.0000000000000000     
  -1.5933333333333336E-005     0.0000000000000000     
  -1.5733333333333334E-005     0.0000000000000000     
  -1.5533333333333336E-005     0.0000000000000000     
  -1.5333333333333334E-005     0.0000000000000000     
  -1.5133333333333336E-005     0.0000000000000000     
  -1.4933333333333335E-005     0.0000000000000000     
  -1.4733333333333337E-005     0.0000000000000000     
  -1.4533333333333335E-005     0.0000000000000000     
  -1.4333333333333337E-005     0.0000000000000000     
  -1.4133333333333336E-005     0.0000000000000000     
  -1.3933333333333334E-005     0.0000000000000000     
  -1.3733333333333336E-005     0.0000000000000000     
  -1.3533333333333335E-005     0.0000000000000000     
  -1.3333333333333337E-005     0.0000000000000000     
  -1.3133333333333335E-005     0.0000000000000000     
  -1.2933333333333337E-005     0.0000000000000000     
  -1.2733333333333336E-005     0.0000000000000000     
  -1.2533333333333338E-005     0.0000000000000000     
  -1.2333333333333336E-005     0.0000000000000000     
  -1.2133333333333335E-005     0.0000000000000000     
  -1.1933333333333337E-005     0.0000000000000000     
  -1.1733333333333335E-005     0.0000000000000000     
  -1.1533333333333337E-005     0.0000000000000000     
  -1.1333333333333336E-005     0.0000000000000000     
  -1.1133333333333337E-005     0.0000000000000000     
  -1.0933333333333336E-005     0.0000000000000000     
  -1.0733333333333334E-005     0.0000000000000000     
  -1.0533333333333336E-005     0.0000000000000000     
  -1.0333333333333335E-005     0.0000000000000000     
  -1.0133333333333337E-005     0.0000000000000000     
  -9.9333333333333354E-006     0.0000000000000000     
  -9.7333333333333373E-006     0.0000000000000000     
  -9.5333333333333358E-006     0.0000000000000000     
  -9.3333333333333343E-006     0.0000000000000000     
  -9.1333333333333362E-006     0.0000000000000000     
  -8.9333333333333348E-006     0.0000000000000000     
  -8.7333333333333367E-006     0.0000000000000000     
  -8.5333333333333352E-006     0.0000000000000000     
  -8.3333333333333371E-006     0.0000000000000000     
  -8.1333333333333356E-006     0.0000000000000000     
  -7.9333333333333376E-006     0.0000000000000000     
  -7.7333333333333361E-006     0.0000000000000000     
  -7.5333333333333346E-006     0.0000000000000000     
  -7.3333333333333365E-006     0.0000000000000000     
  -7.1333333333333351E-006     0.0000000000000000     
  -6.9333333333333370E-006     0.0000000000000000     
  -6.7333333333333355E-006     0.0000000000000000     
  -6.5333333333333374E-006     0.0000000000000000     
  -6.3333333333333359E-006     0.0000000000000000     
  -6.1333333333333379E-006     0.0000000000000000     
  -5.9333333333333364E-006     0.0000000000000000     
  -5.7333333333333349E-006     0.0000000000000000     
  -5.5333333333333368E-006     0.0000000000000000     
  -5.3333333333333354E-006     0.0000000000000000     
  -5.1333333333333373E-006     0.0000000000000000     
  -4.9333333333333358E-006     0.0000000000000000     
  -4.7333333333333377E-006     1.7781770809485007E-041
  -4.5333333333333362E-006     7.7254509118833834E-041
  -4.3333333333333348E-006    -8.5535508500810878E-040
  -4.1333333333333367E-006    -2.7664517967715653E-039
  -3.9333333333333352E-006    -5.5009665459700968E-039
  -3.7333333333333371E-006    -8.1537572923142239E-039
  -3.5333333333333356E-006    -5.3522947537429020E-039
  -3.3333333333333376E-006     3.0411206065006829E-039
  -3.1333333333333361E-006     1.8097854169362431E-038
  -2.9333333333333346E-006     3.9450434797352765E-038
  -2.7333333333333365E-006     6.0405772655944551E-038
  -2.5333333333333384E-006     8.0634290681813243E-038
  -2.3333333333333336E-006     8.8020826380164987E-038
  -2.1333333333333355E-006     7.8506968631174406E-038
  -1.9333333333333374E-006     2.8516691012051814E-038
  -1.7333333333333393E-006    -7.9926598357319957E-038
  -1.5333333333333345E-006    -2.6788933963294784E-037
  -1.3333333333333364E-006    -5.2913302896978254E-037
  -1.1333333333333383E-006    -8.5159937064715346E-037
  -9.3333333333333343E-007    -1.1745340410061672E-036
  -7.3333333333333535E-007    -1.3375435756965035E-036
  -5.3333333333333726E-007    -1.1396229987483269E-036
  -3.3333333333333918E-007    -3.1830869238686206E-037
  -1.3333333333333432E-007     1.3669196981157651E-036
   6.6666666666663770E-008     4.0344108215650715E-036
   2.6666666666666185E-007     7.5062680616391103E-036
   4.6666666666666672E-007     1.1151905789470504E-035
   6.6666666666666480E-007     1.3739061482424005E-035
   8.6666666666666289E-007     1.3435991042527753E-035
   1.0666666666666610E-006     8.0166381306500390E-036
   1.2666666666666658E-006    -4.6077928171082247E-036
   1.4666666666666639E-006    -2.5508643395031637E-035
   1.6666666666666620E-006    -5.3574325676209287E-035
   1.8666666666666669E-006    -8.4288198958587838E-035
   2.0666666666666649E-006    -1.0885836649336102E-034
   2.2666666666666630E-006    -1.1426674448543524E-034
   2.4666666666666611E-006    -8.4861130360156908E-035
   2.6666666666666660E-006    -5.9797357250824280E-036
   2.8666666666666641E-006     1.3030362776749743E-034
   3.0666666666666622E-006     3.1792003683855848E-034
   3.2666666666666602E-006     5.2956343817457518E-034
   3.4666666666666651E-006     7.1197111784962351E-034
   3.6666666666666632E-006     7.8691924592802244E-034
   3.8666666666666613E-006     6.6116382900733279E-034
   4.0666666666666661E-006     2.4746324902157495E-034
   4.2666666666666642E-006    -5.0360830182248475E-034
   4.4666666666666623E-006    -1.5651051309567573E-033
   4.6666666666666604E-006    -2.7970140988461745E-033
   4.8666666666666652E-006    -3.9242754553555425E-033
   5.0666666666666633E-006    -4.5447824882390742E-033
   5.2666666666666614E-006    -4.1813613307452247E-033
   5.4666666666666663E-006    -2.3853146409313967E-033
   5.6666666666666644E-006     1.1130996176881183E-033
   5.8666666666666624E-006     6.2288410981779587E-033
   6.0666666666666605E-006     1.2361286059320150E-032
   6.2666666666666654E-006     1.8304272728493776E-032
   6.4666666666666635E-006     2.2288613832528395E-032
   6.6666666666666616E-006     2.2208434885901583E-032
   6.8666666666666664E-006     1.6052222772337198E-032
   7.0666666666666645E-006     2.5089470346105853E-033
   7.2666666666666626E-006    -1.8344417455209068E-032
   7.4666666666666607E-006    -4.4431780063650851E-032
   7.6666666666666655E-006    -7.1346300622992923E-032
   7.8666666666666636E-006    -9.2506716193560282E-032
   8.0666666666666617E-006    -9.9958033576170832E-032
   8.2666666666666598E-006    -8.5857187040618119E-032
   8.4666666666666647E-006    -4.4513562328357272E-032
   8.6666666666666627E-006     2.5341784032081722E-032
   8.8666666666666608E-006     1.1855924814937785E-031
   9.0666666666666657E-006     2.2244506494414134E-031
   9.2666666666666638E-006     3.1707476492190160E-031
   9.4666666666666619E-006     3.7742317975029729E-031
   9.6666666666666599E-006     3.7734620935796929E-031
   9.8666666666666648E-006     2.9500782837763458E-031
   1.0066666666666663E-005     1.1889951945610222E-031
   1.0266666666666661E-005    -1.4673031208358470E-031
   1.0466666666666666E-005    -4.7831987484294132E-031
   1.0666666666666664E-005    -8.3239680288332882E-031
   1.0866666666666662E-005    -1.1485421805027020E-030
   1.1066666666666660E-005    -1.3558493940648035E-030
   1.1266666666666665E-005    -1.3821370711863850E-030
   1.1466666666666663E-005    -1.1647142383422057E-030
   1.1666666666666661E-005    -6.6140582962153550E-031
   1.1866666666666666E-005     1.3913269676693854E-031
   1.2066666666666664E-005     1.2081926658862786E-030
   1.2266666666666662E-005     2.4687557461578600E-030
   1.2466666666666660E-005     3.7880861543022009E-030
   1.2666666666666665E-005     4.9719796472377143E-030
   1.2866666666666663E-005     5.7634365649870555E-030
   1.3066666666666661E-005     5.8511476746016854E-030
   1.3266666666666666E-005     4.8955396762466472E-030
   1.3466666666666664E-005     2.5807191216931306E-030
   1.3666666666666662E-005    -1.3021016504108906E-030
   1.3866666666666660E-005    -6.7414974515542361E-030
   1.4066666666666665E-005    -1.3376938652920605E-029
   1.4266666666666663E-005    -2.0383195660166562E-029
   1.4466666666666661E-005    -2.6411737481031813E-029
   1.4666666666666666E-005    -2.9641136068523520E-029
   1.4866666666666664E-005    -2.7984570099377139E-029
   1.5066666666666662E-005    -1.9480691361279405E-029
   1.5266666666666661E-005    -2.8528766194869612E-030
   1.5466666666666665E-005     2.1835488374663879E-029
   1.5666666666666663E-005     5.2565210917736086E-029
   1.5866666666666662E-005     8.4972351637550857E-029
   1.6066666666666660E-005     1.1239400153169097E-028
   1.6266666666666665E-005     1.2652549829946246E-028
   1.6466666666666663E-005     1.1877111414754533E-028
   1.6666666666666661E-005     8.2214444026568381E-029
   1.6866666666666666E-005     1.3937254379973862E-029
   1.7066666666666664E-005    -8.2780042283728172E-029
   1.7266666666666662E-005    -1.9698447672000613E-028
   1.7466666666666660E-005    -3.0993495947284521E-028
   1.7666666666666665E-005    -3.9683826959754820E-028
   1.7866666666666663E-005    -4.3061052845962686E-028
   1.8066666666666661E-005    -3.8736807657357480E-028
   1.8266666666666666E-005    -2.5281185395697310E-028
   1.8466666666666664E-005    -2.8188265311302475E-029
   1.8666666666666662E-005     2.6576166118781269E-028
   1.8866666666666660E-005     5.8837821930042658E-028
   1.9066666666666665E-005     8.8319161419857115E-028
   1.9266666666666663E-005     1.0866585419806480E-027
   1.9466666666666661E-005     1.1404376806395980E-027
   1.9666666666666666E-005     1.0049251810742212E-027
   1.9866666666666664E-005     6.7090869264072546E-028
   2.0066666666666662E-005     1.6600513230448730E-028
   2.0266666666666660E-005    -4.4674520587585580E-028
   2.0466666666666665E-005    -1.0791076502480724E-027
   2.0666666666666663E-005    -1.6353389008132941E-027
   2.0866666666666661E-005    -2.0334411092341709E-027
   2.1066666666666659E-005    -2.2241301843143888E-027
   2.1266666666666664E-005    -2.2010263201119106E-027
   2.1466666666666662E-005    -1.9968809934108693E-027
   2.1666666666666660E-005    -1.6640676217781611E-027
   2.1866666666666665E-005    -1.2426526502441765E-027
   2.2066666666666663E-005    -7.2501715418282307E-028
   2.2266666666666661E-005    -3.0548267680799425E-029
   2.2466666666666659E-005     9.9453941567847128E-028
   2.2666666666666664E-005     2.5402192664201680E-027
   2.2866666666666662E-005     4.7548079241301958E-027
   2.3066666666666660E-005     7.6354359224680577E-027
   2.3266666666666665E-005     1.0911087954240481E-026
   2.3466666666666663E-005     1.3955725704641292E-026
   2.3666666666666661E-005     1.5775694214870793E-026
   2.3866666666666660E-005     1.5111164942531507E-026
   2.4066666666666664E-005     1.0672940248591247E-026
   2.4266666666666662E-005     1.5038686448224379E-027
   2.4466666666666661E-005    -1.2587072471179407E-026
   2.4666666666666665E-005    -3.0611761582024705E-026
   2.4866666666666663E-005    -5.0135139286694733E-026
   2.5066666666666662E-005    -6.7283265223046017E-026
   2.5266666666666660E-005    -7.7130562812727869E-026
   2.5466666666666665E-005    -7.4504251447610567E-026
   2.5666666666666663E-005    -5.5146725584426127E-026
   2.5866666666666661E-005    -1.7062890258606535E-026
   2.6066666666666666E-005     3.8224706147469664E-026
   2.6266666666666664E-005     1.0485391332811775E-025
   2.6466666666666662E-005     1.7256992992733187E-025
   2.6666666666666660E-005     2.2768305576518200E-025
   2.6866666666666665E-005     2.5509696247316418E-025
   2.7066666666666663E-005     2.4121931313917877E-025
   2.7266666666666661E-005     1.7730096543856827E-025
   2.7466666666666666E-005     6.2530566659339079E-026
   2.7666666666666664E-005    -9.3891222933823754E-026
   2.7866666666666662E-005    -2.7240535040163646E-025
   2.8066666666666667E-005    -4.4491935799424218E-025
   2.8266666666666658E-005    -5.7881329921983575E-025
   2.8466666666666663E-005    -6.4260893015741604E-025
   2.8666666666666668E-005    -6.1228501298503959E-025
   2.8866666666666659E-005    -4.7689380976777264E-025
   2.9066666666666664E-005    -2.4210130576598554E-025
   2.9266666666666669E-005     6.9389771325797154E-026
   2.9466666666666660E-005     4.2089290623761682E-025
   2.9666666666666665E-005     7.6772920662533553E-025
   2.9866666666666656E-005     1.0647324893935492E-024
   3.0066666666666661E-005     1.2732500553869115E-024
   3.0266666666666666E-005     1.3655780742027138E-024
   3.0466666666666657E-005     1.3254271657752062E-024
   3.0666666666666662E-005     1.1443293359743900E-024
   3.0866666666666667E-005     8.1559647188801623E-025
   3.1066666666666658E-005     3.2902779123577906E-025
   3.1266666666666663E-005    -3.2957673418438408E-025
   3.1466666666666668E-005    -1.1704840286544127E-024
   3.1666666666666659E-005    -2.1821493598537309E-024
   3.1866666666666664E-005    -3.3054832597524002E-024
   3.2066666666666656E-005    -4.4068319849122704E-024
   3.2266666666666660E-005    -5.2603565675956870E-024
   3.2466666666666665E-005    -5.5526815917836452E-024
   3.2666666666666657E-005    -4.9213679382821140E-024
   3.2866666666666661E-005    -3.0329250265464551E-024
   3.3066666666666666E-005     3.0427967108276600E-025
   3.3266666666666658E-005     5.0103109394472044E-024
   3.3466666666666662E-005     1.0618845124104548E-023
   3.3666666666666667E-005     1.6218543090459068E-023
   3.3866666666666659E-005     2.0493067048789499E-023
   3.4066666666666664E-005     2.1891218577078742E-023
   3.4266666666666668E-005     1.8934107183412891E-023
   3.4466666666666660E-005     1.0630116580805935E-023
   3.4666666666666665E-005    -3.0733422543340459E-024
   3.4866666666666656E-005    -2.0909867156711527E-023
   3.5066666666666661E-005    -4.0115812797448902E-023
   3.5266666666666666E-005    -5.6577012874572527E-023
   3.5466666666666657E-005    -6.5381112714113251E-023
   3.5666666666666662E-005    -6.1776499052450252E-023
   3.5866666666666667E-005    -4.2431161141807553E-023
   3.6066666666666658E-005    -6.7683320572092374E-024
   3.6266666666666663E-005     4.1940844448709890E-023
   3.6466666666666668E-005     9.6092864826087276E-023
   3.6666666666666659E-005     1.4420526083321268E-022
   3.6866666666666664E-005     1.7250476028151066E-022
   3.7066666666666669E-005     1.6761995615290322E-022
   3.7266666666666660E-005     1.2005611151071227E-022
   3.7466666666666665E-005     2.7826480846414673E-023
   3.7666666666666656E-005    -1.0062406961449878E-022
   3.7866666666666661E-005    -2.4516278722435398E-022
   3.8066666666666666E-005    -3.7522037686036497E-022
   3.8266666666666657E-005    -4.5402572600211618E-022
   3.8466666666666662E-005    -4.4570232886635621E-022
   3.8666666666666667E-005    -3.2435984665892405E-022
   3.8866666666666658E-005    -8.3558243209090276E-023
   3.9066666666666663E-005     2.5605673649393948E-022
   3.9266666666666668E-005     6.4335833370156427E-022
   3.9466666666666659E-005     9.9967939322421078E-022
   3.9666666666666664E-005     1.2292660188621903E-021
   3.9866666666666655E-005     1.2369563053387753E-021
   4.0066666666666660E-005     9.5098418877463938E-022
   4.0266666666666665E-005     3.4698598933229524E-022
   4.0466666666666656E-005    -5.3211613372764136E-022
   4.0666666666666661E-005    -1.5661929669358320E-021
   4.0866666666666666E-005    -2.5630992139945463E-021
   4.1066666666666657E-005    -3.2820071926655776E-021
   4.1266666666666662E-005    -3.4745462497349535E-021
   4.1466666666666667E-005    -2.9392111518015711E-021
   4.1666666666666658E-005    -1.5802425553103029E-021
   4.1866666666666663E-005     5.4116503920133729E-022
   4.2066666666666668E-005     3.1769263433741268E-021
   4.2266666666666660E-005     5.8957168121544298E-021
   4.2466666666666664E-005     8.1281696444040728E-021
   4.2666666666666656E-005     9.2543286312707028E-021
   4.2866666666666661E-005     8.7248734943691088E-021
   4.3066666666666665E-005     6.1981102261296482E-021
   4.3266666666666657E-005     1.6668614613316521E-021
   4.3466666666666662E-005    -4.4546159871264201E-021
   4.3666666666666666E-005    -1.1312029661254222E-020
   4.3866666666666658E-005    -1.7680983400891673E-020
   4.4066666666666663E-005    -2.2131416499767542E-020
   4.4266666666666667E-005    -2.3273754118604302E-020
   4.4466666666666659E-005    -2.0053812854514672E-020
   4.4666666666666664E-005    -1.2046008655836985E-020
   4.4866666666666655E-005     3.1609766127919231E-022
   4.5066666666666660E-005     1.5632934350631968E-020
   4.5266666666666665E-005     3.1603753443717893E-020
   4.5466666666666656E-005     4.5285873779768377E-020
   4.5666666666666661E-005     5.3535752091292042E-020
   4.5866666666666666E-005     5.3579941425251692E-020
   4.6066666666666657E-005     4.3627719840605101E-020
   4.6266666666666662E-005     2.3412135111530512E-020
   4.6466666666666667E-005    -5.4602566346316757E-021
   4.6666666666666658E-005    -3.9454195867867330E-020
   4.6866666666666663E-005    -7.3408129733641881E-020
   4.7066666666666668E-005    -1.0119769332519882E-019
   4.7266666666666659E-005    -1.1669366571769135E-019
   4.7466666666666664E-005    -1.1487981664986461E-019
   4.7666666666666655E-005    -9.2944382316664848E-020
   4.7866666666666660E-005    -5.1136034401402774E-020
   4.8066666666666665E-005     6.8094974901937160E-021
   4.8266666666666656E-005     7.3810713586028485E-020
   4.8466666666666661E-005     1.4019818521259453E-019
   4.8666666666666666E-005     1.9502692535001597E-019
   4.8866666666666657E-005     2.2776910403974913E-019
   4.9066666666666662E-005     2.3012224538884421E-019
   4.9266666666666667E-005     1.9761947992841984E-019
   4.9466666666666658E-005     1.3073578764950998E-019
   4.9666666666666663E-005     3.5253839874464201E-020
   4.9866666666666655E-005    -7.8225780168609524E-020
   5.0066666666666659E-005    -1.9559065645078225E-019
   5.0266666666666664E-005    -3.0114221256867096E-019
   5.0466666666666656E-005    -3.7981663170391852E-019
   5.0666666666666660E-005    -4.1931086286445113E-019
   5.0866666666666665E-005    -4.1173577481888235E-019
   5.1066666666666657E-005    -3.5451621035572172E-019
   5.1266666666666661E-005    -2.5042180123324832E-019
   5.1466666666666666E-005    -1.0681250549867347E-019
   5.1666666666666658E-005     6.5630966496264488E-020
   5.1866666666666662E-005     2.5429400791300486E-019
   5.2066666666666667E-005     4.4570982454390382E-019
   5.2266666666666659E-005     6.2601069490636107E-019
   5.2466666666666664E-005     7.8063512023897474E-019
   5.2666666666666655E-005     8.9346615080425408E-019
   5.2866666666666660E-005     9.4587437765625462E-019
   5.3066666666666665E-005     9.1636545422268698E-019
   5.3266666666666656E-005     7.8160446421748992E-019
   5.3466666666666661E-005     5.1944661068270985E-019
   5.3666666666666666E-005     1.1422572566486354E-019
   5.3866666666666657E-005    -4.3602835870220837E-019
   5.4066666666666662E-005    -1.1114648451333415E-018
   5.4266666666666667E-005    -1.8630686623700392E-018
   5.4466666666666658E-005    -2.6082581223480511E-018
   5.4666666666666663E-005    -3.2316956140731081E-018
   5.4866666666666668E-005    -3.5932171687248950E-018
   5.5066666666666659E-005    -3.5438777566739402E-018
   5.5266666666666664E-005    -2.9497279397483094E-018
   5.5466666666666655E-005    -1.7212267400461652E-018
   5.5666666666666660E-005     1.5557203739001546E-019
   5.5866666666666665E-005     2.5914095956185251E-018
   5.6066666666666656E-005     5.3760111711645260E-018
   5.6266666666666661E-005     8.1762187028608379E-018
   5.6466666666666666E-005     1.0554996274039301E-017
   5.6666666666666657E-005     1.2013829654605234E-017
   5.6866666666666662E-005     1.2057609153166281E-017
   5.7066666666666667E-005     1.0276963152101423E-017
   5.7266666666666658E-005     6.4387840982276812E-018
   5.7466666666666663E-005     5.7199139223059330E-019
   5.7666666666666654E-005    -6.9668109117790948E-018
   5.7866666666666659E-005    -1.5463611772631449E-017
   5.8066666666666664E-005    -2.3867028170367285E-017
   5.8266666666666655E-005    -3.0867265408513009E-017
   5.8466666666666660E-005    -3.5035965174529464E-017
   5.8666666666666665E-005    -3.5019688065997470E-017
   5.8866666666666656E-005    -2.9769525446701110E-017
   5.9066666666666661E-005    -1.8779444154890725E-017
   5.9266666666666666E-005    -2.2979198989586772E-018
   5.9466666666666657E-005     1.8526848896904016E-017
   5.9666666666666662E-005     4.1607090337780594E-017
   5.9866666666666667E-005     6.4012551472001606E-017
   6.0066666666666659E-005     8.2222173390842894E-017
   6.0266666666666663E-005     9.2527636132353269E-017
   6.0466666666666655E-005     9.1561173793421469E-017
   6.0666666666666660E-005     7.6893544358224681E-017
   6.0866666666666664E-005     4.7623647432245175E-017
   6.1066666666666656E-005     4.8641625780584365E-018
   6.1266666666666661E-005    -4.7978613324164054E-017
   6.1466666666666665E-005    -1.0522252531007020E-016
   6.1666666666666657E-005    -1.5928976238202685E-016
   6.1866666666666662E-005    -2.0146956143421310E-016
   6.2066666666666666E-005    -2.2302474534777417E-016
   6.2266666666666658E-005    -2.1653799549210206E-016
   6.2466666666666663E-005    -1.7733063158858023E-016
   6.2666666666666668E-005    -1.0473786518337243E-016
   6.2866666666666659E-005    -3.0028713434918011E-018
   6.3066666666666664E-005     1.1843464740634472E-016
   6.3266666666666655E-005     2.4542274491841566E-016
   6.3466666666666660E-005     3.6042494506598392E-016
   6.3666666666666665E-005     4.4463130719374847E-016
   6.3866666666666656E-005     4.8064662561198650E-016
   6.4066666666666661E-005     4.5541182674300622E-016
   6.4266666666666666E-005     3.6290856085832669E-016
   6.4466666666666657E-005     2.0615583600084759E-016
   6.4666666666666662E-005    -1.9561553022894659E-018
   6.4866666666666667E-005    -2.3931933733383289E-016
   6.5066666666666658E-005    -4.7686098950077336E-016
   6.5266666666666663E-005    -6.8223598299415386E-016
   6.5466666666666654E-005    -8.2450609926744490E-016
   6.5666666666666659E-005    -8.7909811935804291E-016
   6.5866666666666664E-005    -8.3216865972396003E-016
   6.6066666666666655E-005    -6.8348443954566444E-016
   6.6266666666666660E-005    -4.4708322528300283E-016
   6.6466666666666665E-005    -1.4932039272777506E-016
   6.6666666666666656E-005     1.7561058545276475E-016
   6.6866666666666661E-005     4.9203238075055529E-016
   6.7066666666666666E-005     7.6982832437095702E-016
   6.7266666666666657E-005     9.9060982953835167E-016
   6.7466666666666662E-005     1.1513227414361854E-015
   6.7666666666666667E-005     1.2638548108082702E-015
   6.7866666666666658E-005     1.3498467804505011E-015
   6.8066666666666663E-005     1.4309032451950721E-015
   6.8266666666666655E-005     1.5156240273742787E-015
   6.8466666666666659E-005     1.5861171197330214E-015
   6.8666666666666664E-005     1.5876381994140176E-015
   6.8866666666666656E-005     1.4254408753258141E-015
   6.9066666666666660E-005     9.7255041782034174E-016
   6.9266666666666665E-005     9.0833041957407845E-017
   6.9466666666666657E-005    -1.3345808400282341E-015
   6.9666666666666661E-005    -3.3505680591479638E-015
   6.9866666666666666E-005    -5.8874904320488182E-015
   7.0066666666666658E-005    -8.7166199415330968E-015
   7.0266666666666662E-005    -1.1425487846485957E-014
   7.0466666666666654E-005    -1.3423617468688564E-014
   7.0666666666666659E-005    -1.3989153101079960E-014
   7.0866666666666664E-005    -1.2362188376177302E-014
   7.1066666666666655E-005    -7.8831264503032955E-015
   7.1266666666666660E-005    -1.6478389217520307E-016
   7.1466666666666665E-005     1.0723576690521837E-014
   7.1666666666666656E-005     2.4091964341929990E-014
   7.1866666666666661E-005     3.8523730710161049E-014
   7.2066666666666666E-005     5.1868558496234522E-014
   7.2266666666666657E-005     6.1369911913722256E-014
   7.2466666666666662E-005     6.3949286960947350E-014
   7.2666666666666667E-005     5.6648203484869208E-014
   7.2866666666666658E-005     3.7200460247701290E-014
   7.3066666666666663E-005     4.6748151852589710E-015
   7.3266666666666654E-005    -3.9903491759669172E-014
   7.3466666666666659E-005    -9.3069367698752879E-014
   7.3666666666666664E-005    -1.4870243564646264E-013
   7.3866666666666655E-005    -1.9820330457905762E-013
   7.4066666666666660E-005    -2.3115607126937025E-013
   7.4266666666666665E-005    -2.3651747258070052E-013
   7.4466666666666656E-005    -2.0429500415199773E-013
   7.4666666666666661E-005    -1.2758187086486269E-013
   7.4866666666666666E-005    -4.7158226468513127E-015
   7.5066666666666657E-005     1.5876379834387387E-013
   7.5266666666666662E-005     3.4875083089729706E-013
   7.5466666666666653E-005     5.4220954245876168E-013