  -3.3333333333333335E-005     0.0000000000000000     
  -3.3133333333333337E-005     0.0000000000000000     
  -3.2933333333333332E-005     0.0000000000000000     
  -3.2733333333333334E-005     0.0000000000000000     
  -3.2533333333333336E-005     0.0000000000000000     
  -3.2333333333333338E-005     0.0000000000000000     
  -3.2133333333333333E-005     0.0000000000000000     
  -3.1933333333333335E-005     0.0000000000000000     
  -3.1733333333333337E-005     0.0000000000000000     
  -3.1533333333333332E-005     0.0000000000000000     
  -3.1333333333333334E-005     0.0000000000000000     
  -3.1133333333333336E-005     0.0000000000000000     
  -3.0933333333333338E-005     0.0000000000000000     
  -3.0733333333333333E-005     0.0000000000000000     
  -3.0533333333333335E-005     0.0000000000000000     
  -3.0333333333333337E-005     0.0000000000000000     
  -3.0133333333333335E-005     0.0000000000000000     
  -2.9933333333333334E-005     0.0000000000000000     
  -2.9733333333333336E-005     0.0000000000000000     
  -2.9533333333333334E-005     0.0000000000000000     
  -2.9333333333333336E-005     0.0000000000000000     
  -2.9133333333333334E-005     0.0000000000000000     
  -2.8933333333333336E-005     0.0000000000000000     
  -2.8733333333333335E-005     0.0000000000000000     
  -2.8533333333333333E-005     0.0000000000000000     
  -2.8333333333333335E-005     0.0000000000000000     
  -2.8133333333333337E-005     0.0000000000000000     
  -2.7933333333333336E-005     0.0000000000000000     
  -2.7733333333333334E-005     0.0000000000000000     
  -2.7533333333333336E-005     0.0000000000000000     
  -2.7333333333333335E-005     0.0000000000000000     
  -2.7133333333333333E-005     0.0000000000000000     
  -2.6933333333333335E-005     0.0000000000000000     
  -2.6733333333333337E-005     0.0000000000000000     
  -2.6533333333333336E-005     0.0000000000000000     
  -2.6333333333333334E-005     0.0000000000000000     
  -2.6133333333333336E-005     0.0000000000000000     
  -2.5933333333333335E-005     0.0000000000000000     
  -2.5733333333333333E-005     0.0000000000000000     
  -2.5533333333333335E-005     0.0000000000000000     
  -2.5333333333333337E-005     0.0000000000000000     
  -2.5133333333333336E-005     0.0000000000000000     
  -2.4933333333333334E-005     0.0000000000000000     
  -2.4733333333333336E-005     0.0000000000000000     
  -2.4533333333333334E-005     0.0000000000000000     
  -2.4333333333333333E-005     0.0000000000000000     
  -2.4133333333333335E-005     0.0000000000000000     
  -2.3933333333333337E-005     0.0000000000000000     
  -2.3733333333333335E-005     0.0000000000000000     
  -2.3533333333333334E-005     0.0000000000000000     
  -2.3333333333333336E-005     0.0000000000000000     
  -2.3133333333333338E-005     0.0000000000000000     
  -2.2933333333333336E-005     0.0000000000000000     
  -2.2733333333333335E-005     0.0000000000000000     
  -2.2533333333333337E-005     0.0000000000000000     
  -2.2333333333333335E-005     0.0000000000000000     
  -2.2133333333333334E-005     0.0000000000000000     
  -2.1933333333333336E-005     0.0000000000000000     
  -2.1733333333333338E-005     0.0000000000000000     
  -2.1533333333333336E-005     0.0000000000000000     
  -2.1333333333333335E-005     0.0000000000000000     
  -2.1133333333333337E-005     0.0000000000000000     
  -2.0933333333333335E-005     0.0000000000000000     
  -2.0733333333333334E-005     0.0000000000000000     
  -2.0533333333333336E-005     0.0000000000000000     
  -2.0333333333333337E-005     0.0000000000000000     
  -2.0133333333333336E-005     0.0000000000000000     
  -1.9933333333333334E-005     0.0000000000000000     
  -1.9733333333333336E-005     0.0000000000000000     
  -1.9533333333333335E-005     0.0000000000000000     
  -1.9333333333333333E-005     0.0000000000000000     
  -1.9133333333333335E-005     0.0000000000000000     
  -1.8933333333333337E-005     0.0000000000000000     
  -1.8733333333333336E-005     0.0000000000000000     
  -1.8533333333333334E-005     0.0000000000000000     
  -1.8333333333333336E-005     0.0000000000000000     
  -1.8133333333333335E-005     0.0000000000000000     
  -1.7933333333333337E-005     0.0000000000000000     
  -1.7733333333333335E-005     0.0000000000000000     
  -1.7533333333333337E-005     0.0000000000000000     
  -1.7333333333333336E-005     0.0000000000000000     
  -1.7133333333333334E-005     0.0000000000000000     
  -1.6933333333333336E-005     0.0000000000000000     
  -1.6733333333333335E-005     0.0000000000000000     
  -1.6533333333333337E-005     0.0000000000000000     
  -1.6333333333333335E-005     0.0000000000000000     
  -1.6133333333333337E-005     0.0000000000000000     
  -1.5933333333333336E-005     0.0000000000000000     
  -1.5733333333333334E-005     0.0000000000000000     
  -1.5533333333333336E-005     0.0000000000000000     
  -1.5333333333333334E-005     0.0000000000000000     
  -1.5133333333333336E-005     0.0000000000000000     
  -1.4933333333333335E-005     0.0000000000000000     
  -1.4733333333333337E-005     0.0000000000000000     
  -1.4533333333333335E-005     0.0000000000000000     
  -1.4333333333333337E-005     0.0000000000000000     
  -1.4133333333333336E-005     0.0000000000000000     
  -1.3933333333333334E-005     0.0000000000000000     
  -1.3733333333333336E-005     0.0000000000000000     
  -1.3533333333333335E-005     0.0000000000000000     
  -1.3333333333333337E-005     0.0000000000000000     
  -1.3133333333333335E-005     0.0000000000000000     
  -1.2933333333333337E-005     0.0000000000000000     
  -1.2733333333333336E-005     0.0000000000000000     
  -1.2533333333333338E-005     0.0000000000000000     
  -1.2333333333333336E-005     0.0000000000000000     
  -1.2133333333333335E-005     0.0000000000000000     
  -1.1933333333333337E-005     0.0000000000000000     
  -1.1733333333333335E-005     0.0000000000000000     
  -1.1533333333333337E-005     0.0000000000000000     
  -1.1333333333333336E-005     0.0000000000000000     
  -1.1133333333333337E-005     0.0000000000000000     
  -1.0933333333333336E-005     0.0000000000000000     
  -1.0733333333333334E-005     0.0000000000000000     
  -1.0533333333333336E-005     0.0000000000000000     
  -1.0333333333333335E-005     0.0000000000000000     
  -1.0133333333333337E-005     0.0000000000000000     
  -9.9333333333333354E-006     0.0000000000000000     
  -9.7333333333333373E-006     0.0000000000000000     
  -9.5333333333333358E-006     0.0000000000000000     
  -9.3333333333333343E-006     0.0000000000000000     
  -9.1333333333333362E-006     0.0000000000000000     
  -8.9333333333333348E-006     0.0000000000000000     
  -8.7333333333333367E-006     0.0000000000000000     
  -8.5333333333333352E-006     0.0000000000000000     
  -8.3333333333333371E-006     0.0000000000000000     
  -8.1333333333333356E-006     0.0000000000000000     
  -7.9333333333333376E-006     0.0000000000000000     
  -7.7333333333333361E-006     0.0000000000000000     
  -7.5333333333333346E-006     0.0000000000000000     
  -7.3333333333333365E-006     0.0000000000000000     
  -7.1333333333333351E-006     0.0000000000000000     
  -6.9333333333333370E-006     0.0000000000000000     
  -6.7333333333333355E-006     0.0000000000000000     
  -6.5333333333333374E-006     0.0000000000000000     
  -6.3333333333333359E-006     0.0000000000000000     
  -6.1333333333333379E-006     0.0000000000000000     
  -5.9333333333333364E-006     0.0000000000000000     
  -5.7333333333333349E-006     0.0000000000000000     
  -5.5333333333333368E-006     0.0000000000000000     
  -5.3333333333333354E-006     0.0000000000000000     
  -5.1333333333333373E-006     0.0000000000000000     
  -4.9333333333333358E-006     0.0000000000000000     
  -4.7333333333333377E-006     0.0000000000000000     
  -4.5333333333333362E-006     0.0000000000000000     
  -4.3333333333333348E-006     8.1523672116321305E-040
  -4.1333333333333367E-006     1.7610904711395906E-039
  -3.9333333333333352E-006     2.8073134682721834E-039
  -3.7333333333333371E-006     3.5426404700325425E-039
  -3.5333333333333356E-006     1.7144122606659107E-039
  -3.3333333333333376E-006    -3.0000250759120132E-039
  -3.1333333333333361E-006    -1.3747053874902372E-038
  -2.9333333333333346E-006    -2.9632518734287989E-038
  -2.7333333333333365E-006    -4.8633263411421049E-038
  -2.5333333333333384E-006    -6.4388458828191679E-038
  -2.3333333333333336E-006    -6.4880942475705953E-038
  -2.1333333333333355E-006    -5.4224844083491563E-038
  -1.9333333333333374E-006    -1.8739439899359007E-038
  -1.7333333333333393E-006     5.9224586487510353E-038
  -1.5333333333333345E-006     1.8645038990742514E-037
  -1.3333333333333364E-006     3.6723200276037751E-037
  -1.1333333333333383E-006     6.1867778606471137E-037
  -9.3333333333333343E-007     8.7792613227432824E-037
  -7.3333333333333535E-007     1.0640731698533451E-036
  -5.3333333333333726E-007     1.0399722121228237E-036
  -3.3333333333333918E-007     6.2507801489027104E-037
  -1.3333333333333432E-007    -3.7572989655021538E-037
   6.6666666666663770E-008    -2.1079870047032940E-036
   2.6666666666666185E-007    -4.5789492953656436E-036
   4.6666666666666672E-007    -7.5403462128053197E-036
   6.6666666666666480E-007    -1.0367703161635960E-035
   8.6666666666666289E-007    -1.1982059376063779E-035
   1.0666666666666610E-006    -1.0871230788532334E-035
   1.2666666666666658E-006    -5.2808159819351449E-036
   1.4666666666666639E-006     6.3677069145753671E-036
   1.6666666666666620E-006     2.4804937913318263E-035
   1.8666666666666669E-006     4.9041544674949037E-035
   2.0666666666666649E-006     7.5442790839595300E-035
   2.2666666666666630E-006     9.7034324390987448E-035
   2.4666666666666611E-006     1.0343268880740564E-034
   2.6666666666666660E-006     8.1856153766837581E-035
   2.8666666666666641E-006     1.9616424631823723E-035
   3.0666666666666622E-006    -9.1734642965060438E-035
   3.2666666666666602E-006    -2.5085989624780273E-034
   3.4666666666666651E-006    -4.4057876038357378E-034
   3.6666666666666632E-006    -6.2291441270623209E-034
   3.8666666666666613E-006    -7.3753376866762418E-034
   4.0666666666666661E-006    -7.0621262518766447E-034
   4.2666666666666642E-006    -4.4566234137326613E-034
   4.4666666666666623E-006     1.1016155114226292E-034
   4.6666666666666604E-006     9.7945711557208046E-034
   4.8666666666666652E-006     2.0981638775291932E-033
   5.0666666666666633E-006     3.2900470908662491E-033
   5.2666666666666614E-006     4.2530242440671326E-033
   5.4666666666666663E-006     4.5752438459756597E-033
   5.6666666666666644E-006     3.7930263921916822E-033
   5.8666666666666624E-006     1.4968734440797675E-033
   6.0666666666666605E-006    -2.5192965848315649E-033
   6.2666666666666654E-006    -8.0861516421931075E-033
   6.4666666666666635E-006    -1.4502504170416361E-032
   6.6666666666666616E-006    -2.0448613762416994E-032
   6.8666666666666664E-006    -2.4031448857808810E-032
   7.0666666666666645E-006    -2.3017797017120867E-032
   7.2666666666666626E-006    -1.5284974988987137E-032
   7.4666666666666607E-006     5.2934504858574454E-034
   7.6666666666666655E-006     2.4263756152078795E-032
   7.8666666666666636E-006     5.3517169639739276E-032
   8.0666666666666617E-006     8.3206636948886801E-032
   8.2666666666666598E-006     1.0565689964799368E-031
   8.4666666666666647E-006     1.1145129774150380E-031
   8.6666666666666627E-006     9.1166018985486743E-032
   8.8666666666666608E-006     3.7916409856559041E-032
   9.0666666666666657E-006    -4.9618813919090389E-032
   9.2666666666666638E-006    -1.6431585873874685E-031
   9.4666666666666619E-006    -2.8872712676179479E-031
   9.6666666666666599E-006    -3.9516744767517700E-031
   9.8666666666666648E-006    -4.4860103310512626E-031
   1.0066666666666663E-005    -4.1274789863755025E-031
   1.0266666666666661E-005    -2.5911265586142956E-031
   1.0466666666666666E-005     2.2294052375511772E-032
   1.0666666666666664E-005     4.1275294664790408E-031
   1.0866666666666662E-005     8.5812573004322883E-031
   1.1066666666666660E-005     1.2688553244966078E-030
   1.1266666666666665E-005     1.5293352057880537E-030
   1.1466666666666663E-005     1.5177847950742889E-030
   1.1666666666666661E-005     1.1353330166339337E-030
   1.1866666666666666E-005     3.3999682092505103E-031
   1.2066666666666664E-005    -8.2172186803434840E-031
   1.2266666666666662E-005    -2.1949497037905909E-030
   1.2466666666666660E-005    -3.5178187642558143E-030
   1.2666666666666665E-005    -4.4513071313545608E-030
   1.2866666666666663E-005    -4.6395404248959231E-030
   1.3066666666666661E-005    -3.7949446134012914E-030
   1.3266666666666666E-005    -1.7939168567588272E-030
   1.3466666666666664E-005     1.2390711389351040E-030
   1.3666666666666662E-005     4.8852449155703319E-030
   1.3866666666666660E-005     8.4478208693649535E-030
   1.4066666666666665E-005     1.1046278034370326E-029
   1.4266666666666663E-005     1.1787576508789230E-029
   1.4466666666666661E-005     9.9916655632226624E-030
   1.4666666666666666E-005     5.4264940035700537E-030
   1.4866666666666664E-005    -1.5087740140814802E-030
   1.5066666666666662E-005    -9.7178033226501085E-030
   1.5266666666666661E-005    -1.7510644998199213E-029
   1.5466666666666665E-005    -2.2896544358304418E-029
   1.5666666666666663E-005    -2.4037605376455264E-029
   1.5866666666666662E-005    -1.9780123106605495E-029
   1.6066666666666660E-005    -1.0133416474061405E-029
   1.6266666666666665E-005     3.4568679660721455E-030
   1.6466666666666663E-005     1.8178155176933106E-029
   1.6666666666666661E-005     3.0338091744718366E-029
   1.6866666666666666E-005     3.6240509462007820E-029
   1.7066666666666664E-005     3.3293645493672030E-029
   1.7266666666666662E-005     2.1074851992950970E-029
   1.7466666666666660E-005     2.0046932037880129E-030
   1.7666666666666665E-005    -1.8702039784141691E-029
   1.7866666666666663E-005    -3.4016715015807325E-029
   1.8066666666666661E-005    -3.6985669858644651E-029
   1.8266666666666666E-005    -2.3203183499350157E-029
   1.8466666666666664E-005     6.7551954966532768E-030
   1.8666666666666662E-005     4.5765660542864225E-029
   1.8866666666666660E-005     8.0289562566493165E-029
   1.9066666666666665E-005     9.2783898539205161E-029
   1.9266666666666663E-005     6.6431200242201300E-029
   1.9466666666666661E-005    -8.5090435627024245E-030
   1.9666666666666666E-005    -1.2820943290961613E-028
   1.9866666666666664E-005    -2.7072580044806221E-028
   2.0066666666666662E-005    -3.9563036559341156E-028
   2.0266666666666660E-005    -4.4957910053905414E-028
   2.0466666666666665E-005    -3.7835085891369854E-028
   2.0666666666666663E-005    -1.4406961143831214E-028
   2.0866666666666661E-005     2.5577228804850010E-028
   2.1066666666666659E-005     7.7269050660705058E-028
   2.1266666666666664E-005     1.3010734055541396E-027
   2.1466666666666662E-005     1.6869953762657503E-027
   2.1666666666666660E-005     1.7549389151404061E-027
   2.1866666666666665E-005     1.3511199932297534E-027
   2.2066666666666663E-005     3.9673173798254582E-028
   2.2266666666666661E-005    -1.0608579700249177E-027
   2.2466666666666659E-005    -2.8145235624735042E-027
   2.2666666666666664E-005    -4.4972704870962088E-027
   2.2866666666666662E-005    -5.6272467290667522E-027
   2.3066666666666660E-005    -5.7005630355365518E-027
   2.3266666666666665E-005    -4.3218850421328140E-027
   2.3466666666666663E-005    -1.3487576281708840E-027
   2.3666666666666661E-005     2.9860820710522409E-027
   2.3866666666666660E-005     8.0154152761702231E-027
   2.4066666666666664E-005     1.2677646845905206E-026
   2.4266666666666662E-005     1.5676245075611049E-026
   2.4466666666666661E-005     1.5751335094944196E-026
   2.4666666666666665E-005     1.2022823467635214E-026
   2.4866666666666663E-005     4.3322563627098376E-027
   2.5066666666666662E-005    -6.5106649239940827E-027
   2.5266666666666660E-005    -1.8672136800825207E-026
   2.5466666666666665E-005    -2.9498595916411428E-026
   2.5666666666666663E-005    -3.5998345771909679E-026
   2.5866666666666661E-005    -3.5544503286628228E-026
   2.6066666666666666E-005    -2.6664885191468103E-026
   2.6266666666666664E-005    -9.7219012893234187E-027
   2.6466666666666662E-005     1.2738784629460958E-026
   2.6666666666666660E-005     3.6159489283136303E-026
   2.6866666666666665E-005     5.4753489502002583E-026
   2.7066666666666663E-005     6.2839830091137460E-026
   2.7266666666666661E-005     5.6491359890182993E-026
   2.7466666666666666E-005     3.5096323157429854E-026
   2.7666666666666664E-005     2.3433909729111049E-027
   2.7866666666666662E-005    -3.3831364155974852E-026
   2.8066666666666667E-005    -6.2621654530746252E-026
   2.8266666666666658E-005    -7.3022697118020423E-026
   2.8466666666666663E-005    -5.7363015294566578E-026
   2.8666666666666668E-005    -1.4860998122768295E-026
   2.8866666666666659E-005     4.5904283730485445E-026
   2.9066666666666664E-005     1.0674497779489689E-025
   2.9266666666666669E-005     1.4266515482141700E-025
   2.9466666666666660E-005     1.2787177598395875E-025
   2.9666666666666665E-005     4.4222241418439861E-026
   2.9866666666666656E-005    -1.0968005288698896E-025
   3.0066666666666661E-005    -3.1134995616909702E-025
   3.0266666666666666E-005    -5.1216496125734221E-025
   3.0466666666666657E-005    -6.4245611808774977E-025
   3.0666666666666662E-005    -6.2506825583711863E-025
   3.0866666666666667E-005    -3.9637606357513829E-025
   3.1066666666666658E-005     6.8826712185540371E-026
   3.1266666666666663E-005     7.3454613758422603E-025
   3.1466666666666668E-005     1.4903692742112536E-024
   3.1666666666666659E-005     2.1550866122051799E-024
   3.1866666666666664E-005     2.5020982842655809E-024
   3.2066666666666656E-005     2.3070208659990583E-024
   3.2266666666666660E-005     1.4117462953837344E-024
   3.2466666666666665E-005    -2.0738976813431110E-025
   3.2666666666666657E-005    -2.3849697669238431E-024
   3.2866666666666661E-005    -4.7451683512082586E-024
   3.3066666666666666E-005    -6.7308174155977917E-024
   3.3266666666666658E-005    -7.6916867158731518E-024
   3.3466666666666662E-005    -7.0274444240178336E-024
   3.3666666666666667E-005    -4.3643705106968747E-024
   3.3866666666666659E-005     2.7096430444391747E-025
   3.4066666666666664E-005     6.3287250260212623E-024
   3.4266666666666668E-005     1.2712611449059789E-023
   3.4466666666666660E-005     1.7894071454212815E-023
   3.4666666666666665E-005     2.0176566359964354E-023
   3.4866666666666656E-005     1.8086441180315573E-023
   3.5066666666666661E-005     1.0826157329520820E-023
   3.5266666666666666E-005    -1.3104638085540303E-024
   3.5466666666666657E-005    -1.6681631228067455E-023
   3.5666666666666662E-005    -3.2314920852959252E-023
   3.5866666666666667E-005    -4.4276433899131350E-023
   3.6066666666666658E-005    -4.8400877304254557E-023
   3.6266666666666663E-005    -4.1300216176481618E-023
   3.6466666666666668E-005    -2.1471909078731647E-023
   3.6666666666666659E-005     9.7505561488810437E-024
   3.6866666666666664E-005     4.7696474163613040E-023
   3.7066666666666669E-005     8.4566444277174459E-023
   3.7266666666666660E-005     1.1050441687977914E-022
   3.7466666666666665E-005     1.1551015923213501E-022
   3.7666666666666656E-005     9.1948487284272243E-023
   3.7866666666666661E-005     3.7190870909351901E-023
   3.8066666666666666E-005    -4.4239894393075225E-023
   3.8266666666666657E-005    -1.3970341371404077E-022
   3.8466666666666662E-005    -2.2923043775621513E-022
   3.8666666666666667E-005    -2.8836634319413963E-022
   3.8866666666666658E-005    -2.9294125562301006E-022
   3.9066666666666663E-005    -2.2512794591145841E-022
   3.9266666666666668E-005    -7.9657586432997850E-023
   3.9466666666666659E-005     1.3128099351194617E-022
   3.9666666666666664E-005     3.7600879725744485E-022
   3.9866666666666655E-005     6.0546020389920677E-022
   4.0066666666666660E-005     7.6003198915896391E-022
   4.0266666666666665E-005     7.8081080340747663E-022
   4.0466666666666656E-005     6.2367358156877149E-022
   4.0666666666666661E-005     2.7368897091978241E-022
   4.0866666666666666E-005    -2.4347864146145570E-022
   4.1066666666666657E-005    -8.5659090173407005E-022
   4.1266666666666662E-005    -1.4530696327460084E-021
   4.1466666666666667E-005    -1.8937857729717628E-021
   4.1666666666666658E-005    -2.0376425582502150E-021
   4.1866666666666663E-005    -1.7727666548672177E-021
   4.2066666666666668E-005    -1.0488549828903228E-021
   4.2266666666666660E-005     9.6319610103313547E-023
   4.2466666666666664E-005     1.5235538385599828E-021
   4.2666666666666656E-005     2.9980584180061520E-021
   4.2866666666666661E-005     4.2176333899883651E-021
   4.3066666666666665E-005     4.8620609084112235E-021
   4.3266666666666657E-005     4.6576638531146064E-021
   4.3466666666666662E-005     3.4463259088050949E-021
   4.3666666666666666E-005     1.2449822855581661E-021
   4.3866666666666658E-005    -1.7193146065998419E-021
   4.4066666666666663E-005    -5.0114785889942718E-021
   4.4266666666666667E-005    -8.0349517736559339E-021
   4.4466666666666659E-005    -1.0121993134613292E-020
   4.4666666666666664E-005    -1.0657403028369130E-020
   4.4866666666666655E-005    -9.2161611568620091E-021
   4.5066666666666660E-005    -5.6886470820211702E-021
   4.5266666666666665E-005    -3.6460989602632610E-022
   4.5466666666666656E-005     6.0497366829784913E-021
   4.5666666666666661E-005     1.2497780791503708E-020
   4.5866666666666666E-005     1.7723502289346262E-020
   4.6066666666666657E-005     2.0491422351519689E-020
   4.6266666666666662E-005     1.9842008922580103E-020
   4.6466666666666667E-005     1.5335338351119093E-020
   4.6666666666666658E-005     7.2296606810995284E-021
   4.6866666666666663E-005    -3.4543010899928031E-021
   4.7066666666666668E-005    -1.5017126429920425E-020
   4.7266666666666659E-005    -2.5320818503995191E-020
   4.7466666666666664E-005    -3.2161628333731285E-020
   4.7666666666666655E-005    -3.3719168842538994E-020
   4.7866666666666660E-005    -2.8998822693930851E-020
   4.8066666666666665E-005    -1.8170853224397665E-020
   4.8266666666666656E-005    -2.7144502158403194E-021
   4.8466666666666661E-005     1.4699269544647348E-020
   4.8666666666666666E-005     3.0606223041805033E-020
   4.8866666666666657E-005     4.1392940278095422E-020
   4.9066666666666662E-005     4.4085996560985842E-020
   4.9266666666666667E-005     3.7136960551092193E-020
   4.9466666666666658E-005     2.1024164204649217E-020
   4.9666666666666663E-005    -1.5018417704000378E-021
   4.9866666666666655E-005    -2.5656486520800646E-020
   5.0066666666666659E-005    -4.5386697627762910E-020
   5.0266666666666664E-005    -5.4596028483937628E-020
   5.0466666666666656E-005    -4.8641714886895112E-020
   5.0666666666666660E-005    -2.5812332989014594E-020
   5.0866666666666665E-005     1.1565655666714119E-020
   5.1066666666666657E-005     5.6738344365243175E-020
   5.1266666666666661E-005     9.9111654114782854E-020
   5.1466666666666666E-005     1.2591057328252558E-019
   5.1666666666666658E-005     1.2478057939549730E-019
   5.1866666666666662E-005     8.6953417805978113E-020
   5.2066666666666667E-005     1.0378194258317569E-020
   5.2266666666666659E-005    -9.7919050804161222E-020
   5.2466666666666664E-005    -2.2098941990726130E-019
   5.2666666666666655E-005    -3.3320871377023019E-019
   5.2866666666666660E-005    -4.0386791835243086E-019
   5.3066666666666665E-005    -4.0288910611330464E-019
   5.3266666666666656E-005    -3.0791800812911903E-019
   5.3466666666666661E-005    -1.1155112444264591E-019
   5.3666666666666666E-005     1.7288028932017644E-019
   5.3866666666666657E-005     5.0861768718917500E-019
   5.4066666666666662E-005     8.3724481813482020E-019
   5.4266666666666667E-005     1.0856478504860616E-018
   5.4466666666666658E-005     1.1779427959160298E-018
   5.4666666666666663E-005     1.0510154373244786E-018
   5.4866666666666668E-005     6.7122503841930821E-019
   5.5066666666666659E-005     4.8991438181666466E-020
   5.5266666666666664E-005    -7.5232245096651399E-019
   5.5466666666666655E-005    -1.6164426841260831E-018
   5.5666666666666660E-005    -2.3851924489920189E-018
   5.5866666666666665E-005    -2.8807046541624234E-018
   5.6066666666666656E-005    -2.9367822258833098E-018
   5.6266666666666661E-005    -2.4350083287879073E-018
   5.6466666666666666E-005    -1.3392848439647353E-018
   5.6666666666666657E-005     2.7853508138930425E-019
   5.6866666666666662E-005     2.2289620536793791E-018
   5.7066666666666667E-005     4.2163779315179750E-018
   5.7266666666666658E-005     5.8737507059896620E-018
   5.7466666666666663E-005     6.8183137576231080E-018
   5.7666666666666654E-005     6.7213434327826562E-018
   5.7866666666666659E-005     5.3810839659783712E-018
   5.8066666666666664E-005     2.7852324450104476E-018
   5.8266666666666655E-005    -8.5097496117140286E-019
   5.8466666666666660E-005    -5.0826978870612919E-018
   5.8666666666666665E-005    -9.2760068947075274E-018
   5.8866666666666656E-005    -1.2690366904248575E-017
   5.9066666666666661E-005    -1.4594265014411875E-017
   5.9266666666666666E-005    -1.4397408388477039E-017
   5.9466666666666657E-005    -1.1777291435782453E-017
   5.9666666666666662E-005    -6.7757910924873579E-018
   5.9866666666666667E-005     1.5619485062252553E-019
   6.0066666666666659E-005     8.1810872408536871E-018
   6.0266666666666663E-005     1.6168208864615165E-017
   6.0466666666666655E-005     2.2849909589401974E-017
   6.0666666666666660E-005     2.7018770642877442E-017
   6.0866666666666664E-005     2.7734372329197604E-017
   6.1066666666666656E-005     2.4503167548571689E-017
   6.1266666666666661E-005     1.7396652059121055E-017
   6.1466666666666665E-005     7.0817142216647135E-018
   6.1666666666666657E-005    -5.2483901093453652E-018
   6.1866666666666662E-005    -1.8035856800189772E-017
   6.2066666666666666E-005    -2.9588175678969943E-017
   6.2266666666666658E-005    -3.8336590617755504E-017
   6.2466666666666663E-005    -4.3076290704327678E-017
   6.2666666666666668E-005    -4.3143071708172163E-017
   6.2866666666666659E-005    -3.8492438031029191E-017
   6.3066666666666664E-005    -2.9666366036211272E-017
   6.3266666666666655E-005    -1.7656395328243601E-017
   6.3466666666666660E-005    -3.6947593013210549E-018
   6.3666666666666665E-005     1.0977468654615948E-017
   6.3866666666666656E-005     2.5309377654992562E-017
   6.4066666666666661E-005     3.8556232913940898E-017
   6.4266666666666666E-005     5.0280904928489153E-017
   6.4466666666666657E-005     6.0237134131487826E-017
   6.4666666666666662E-005     6.8163111195687162E-017
   6.4866666666666667E-005     7.3542574037063957E-017
   6.5066666666666658E-005     7.5408829771636517E-017
   6.5266666666666663E-005     7.2269038438268932E-017
   6.5466666666666654E-005     6.2209160642674534E-017
   6.5666666666666659E-005     4.3205389393781221E-017
   6.5866666666666664E-005     1.3621693626355683E-017
   6.6066666666666655E-005    -2.7176486220713387E-017
   6.6266666666666660E-005    -7.8204086332527569E-017
   6.6466666666666665E-005    -1.3636916871767562E-016
   6.6666666666666656E-005    -1.9625121464617327E-016
   6.6866666666666661E-005    -2.5025050335989485E-016
   6.7066666666666666E-005    -2.8916119815319145E-016
   6.7266666666666657E-005    -3.0315153242516799E-016
   6.7466666666666662E-005    -2.8306294952209019E-016
   6.7666666666666667E-005    -2.2187881471760809E-016
   6.7866666666666658E-005    -1.1617498189192433E-016
   6.8066666666666663E-005     3.2642540803261965E-017
   6.8266666666666655E-005     2.1748513046798029E-016
   6.8466666666666659E-005     4.2523913895381281E-016
   6.8666666666666664E-005     6.3700009677857406E-016
   6.8866666666666656E-005     8.2889630232655946E-016
   6.9066666666666660E-005     9.7347719544281574E-016
   6.9266666666666665E-005     1.0416314460281787E-015
   6.9466666666666657E-005     1.0050087819634751E-015
   6.9666666666666661E-005     8.3894168583703938E-016
   6.9866666666666666E-005     5.2586664649687285E-016
   7.0066666666666658E-005     5.9209380522032198E-017
   7.0266666666666662E-005    -5.5240270688486142E-016
   7.0466666666666654E-005    -1.2809173803442041E-015
   7.0666666666666659E-005    -2.0751842263989430E-015
   7.0866666666666664E-005    -2.8586732184278099E-015
   7.1066666666666655E-005    -3.5296708395742603E-015
   7.1266666666666660E-005    -3.9651689078198297E-015
   7.1466666666666665E-005    -4.0295856651838543E-015
   7.1666666666666656E-005    -3.5890870433891128E-015
   7.1866666666666661E-005    -2.5315733318359472E-015
   7.2066666666666666E-005    -7.9135623088189166E-016
   7.2266666666666657E-005     1.6237254807555079E-015
   7.2466666666666662E-005     4.6063751007545752E-015
   7.2666666666666667E-005     7.9299317150374562E-015
   7.2866666666666658E-005     1.1240107795346242E-014
   7.3066666666666663E-005     1.4064030805671024E-014
   7.3266666666666654E-005     1.5841285425308546E-014
   7.3466666666666659E-005     1.5979556590746677E-014
   7.3666666666666664E-005     1.3934178664428355E-014
   7.3866666666666655E-005     9.3066916583597447E-015
   7.4066666666666660E-005     1.9527318563895439E-015
   7.4266666666666665E-005    -7.9150648683954818E-015
   7.4466666666666656E-005    -1.9647116934246186E-014
   7.4666666666666661E-005    -3.2119792847452734E-014
   7.4866666666666666E-005    -4.3760218807299803E-014
   7.5066666666666657E-005    -5.2647848952149361E-014
   7.5266666666666662E-005    -5.6699977617220901E-014
   7.5466666666666653E-005    -5.3937067020943424E-014