  -3.3333333333333335E-005     0.0000000000000000     
  -3.3133333333333337E-005    -2.6263510213435870E-002
  -3.2933333333333332E-005    -8.7608919043459729E-003
  -3.2733333333333334E-005    0.16462278376577516     
  -3.2533333333333336E-005    0.59198486541244233     
  -3.2333333333333338E-005     1.2939222821576051     
  -3.2133333333333333E-005     2.1647579657769431     
  -3.1933333333333335E-005     2.9568342427859982     
  -3.1733333333333337E-005     3.3065010421358227     
  -3.1533333333333332E-005     2.7976583544838576     
  -3.1333333333333334E-005     1.0468551759119002     
  -3.1133333333333336E-005    -2.2132859695007134     
  -3.0933333333333338E-005    -7.0758558452255773     
  -3.0733333333333333E-005    -13.443372106932641     
  -3.0533333333333335E-005    -21.058178024547225     
  -3.0333333333333337E-005    -29.570801882081891     
  -3.0133333333333335E-005    -38.626535285762586     
  -2.9933333333333334E-005    -47.945456567988110     
  -2.9733333333333336E-005    -57.373338509540645     
  -2.9533333333333334E-005    -66.889884080412742     
  -2.9333333333333336E-005    -76.573636947451334     
  -2.9133333333333334E-005    -86.535866580300635     
  -2.8933333333333336E-005    -96.844808587272283     
  -2.8733333333333335E-005    -107.46407910066823     
  -2.8533333333333333E-005    -118.22450719890577     
  -2.8333333333333335E-005    -128.83786454248650     
  -2.8133333333333337E-005    -138.94863175509514     
  -2.7933333333333336E-005    -148.20799101751234     
  -2.7733333333333334E-005    -156.34811153252832     
  -2.7533333333333336E-005    -163.23510670060696     
  -2.7333333333333335E-005    -168.88543732620266     
  -2.7133333333333333E-005    -173.44203823355667     
  -2.6933333333333335E-005    -177.11805379191085     
  -2.6733333333333337E-005    -180.12521305379559     
  -2.6533333333333336E-005    -182.60778096900458     
  -2.6333333333333334E-005    -184.60018668865209     
  -2.6133333333333336E-005    -186.01866444030784     
  -2.5933333333333335E-005    -186.68662357689007     
  -2.5733333333333333E-005    -186.38367057541572     
  -2.5533333333333335E-005    -184.90165584533264     
  -2.5333333333333337E-005    -182.09023906112796     
  -2.5133333333333336E-005    -177.87883832131075     
  -2.4933333333333334E-005    -172.26958126489734     
  -2.4733333333333336E-005    -165.30550659226935     
  -2.4533333333333334E-005    -157.02495075500988     
  -2.4333333333333333E-005    -147.41738357133613     
  -2.4133333333333335E-005    -136.39399137460450     
  -2.3933333333333337E-005    -123.78160785415342     
  -2.3733333333333335E-005    -109.34095423169113     
  -2.3533333333333334E-005    -92.802688329965079     
  -2.3333333333333336E-005    -73.909981764568101     
  -2.3133333333333338E-005    -52.454854142726624     
  -2.2933333333333336E-005    -28.297989131612031     
  -2.2733333333333335E-005    -1.3671661064034559     
  -2.2533333333333337E-005     28.364318624872073     
  -2.2333333333333335E-005     60.911997228035126     
  -2.2133333333333334E-005     96.316755078733493     
  -2.1933333333333336E-005     134.67282063871298     
  -2.1733333333333338E-005     176.13892203273261     
  -2.1533333333333336E-005     220.92906631937194     
  -2.1333333333333335E-005     269.28507961179326     
  -2.1133333333333337E-005     321.43714418088115     
  -2.0933333333333335E-005     377.56211968004118     
  -2.0733333333333334E-005     437.74898644013996     
  -2.0533333333333336E-005     501.97972292398651     
  -2.0333333333333337E-005     570.12945122110659     
  -2.0133333333333336E-005     641.98511801534096     
  -1.9933333333333334E-005     717.27726962834561     
  -1.9733333333333336E-005     795.71747807366683     
  -1.9533333333333335E-005     877.03028248816167     
  -1.9333333333333333E-005     960.97220826297723     
  -1.9133333333333335E-005     1047.3314208589297     
  -1.8933333333333337E-005     1135.9077203382335     
  -1.8733333333333336E-005     1226.4772250711248     
  -1.8533333333333334E-005     1318.7501658247329     
  -1.8333333333333336E-005     1412.3320152606211     
  -1.8133333333333335E-005     1506.6987530585059     
  -1.7933333333333337E-005     1601.1933797594065     
  -1.7733333333333335E-005     1695.0443963043567     
  -1.7533333333333337E-005     1787.4020986151670     
  -1.7333333333333336E-005     1877.3827566883963     
  -1.7133333333333334E-005     1964.1089506481342     
  -1.6933333333333336E-005     2046.7338075333719     
  -1.6733333333333335E-005     2124.4432511971340     
  -1.6533333333333337E-005     2196.4359979553133     
  -1.6333333333333335E-005     2261.8865874503499     
  -1.6133333333333337E-005     2319.9047540521083     
  -1.5933333333333336E-005     2369.5056406441904     
  -1.5733333333333334E-005     2409.6006951737227     
  -1.5533333333333336E-005     2439.0167474823529     
  -1.5333333333333334E-005     2456.5382790986578     
  -1.5133333333333336E-005     2460.9665252207556     
  -1.4933333333333335E-005     2451.1799092796468     
  -1.4733333333333337E-005     2426.1788531192228     
  -1.4533333333333335E-005     2385.1092743480549     
  -1.4333333333333337E-005     2327.2561077547193     
  -1.4133333333333336E-005     2252.0194103605590     
  -1.3933333333333334E-005     2158.8796725339143     
  -1.3733333333333336E-005     2047.3688432437118     
  -1.3533333333333335E-005     1917.0634803154142     
  -1.3333333333333337E-005     1767.6023095799267     
  -1.3133333333333335E-005     1598.7289819213063     
  -1.2933333333333337E-005     1410.3502637853510     
  -1.2733333333333336E-005     1202.5930943366061     
  -1.2533333333333338E-005     975.84624358533085     
  -1.2333333333333336E-005     730.77539770999260     
  -1.2133333333333335E-005     468.30775426761670     
  -1.1933333333333337E-005     189.59326489679697     
  -1.1733333333333335E-005    -104.04634705495701     
  -1.1533333333333337E-005    -411.16327962029072     
  -1.1333333333333336E-005    -730.21121208196155     
  -1.1133333333333337E-005    -1059.5465082735934     
  -1.0933333333333336E-005    -1397.4050093412493     
  -1.0733333333333334E-005    -1741.8611424806461     
  -1.0533333333333336E-005    -2090.7876555688890     
  -1.0333333333333335E-005    -2441.8269835246547     
  -1.0133333333333337E-005    -2792.3904506185245     
  -9.9333333333333354E-006    -3139.6851601274930     
  -9.7333333333333373E-006    -3480.7687980618507     
  -9.5333333333333358E-006    -3812.6184380739123     
  -9.3333333333333343E-006    -4132.2003546562173     
  -9.1333333333333362E-006    -4436.5294032267875     
  -8.9333333333333348E-006    -4722.7015182124796     
  -8.7333333333333367E-006    -4987.9073606129668     
  -8.5333333333333352E-006    -5229.4246234344646     
  -8.3333333333333371E-006    -5444.6027455674575     
  -8.1333333333333356E-006    -5630.8532517965095     
  -7.9333333333333376E-006    -5785.6528951804012     
  -7.7333333333333361E-006    -5906.5719975321654     
  -7.5333333333333346E-006    -5991.3227012639818     
  -7.3333333333333365E-006    -6037.8188419892631     
  -7.1333333333333351E-006    -6044.2466974702729     
  -6.9333333333333370E-006    -6009.1237109969479     
  -6.7333333333333355E-006    -5931.3423829091489     
  -6.5333333333333374E-006    -5810.1962151464613     
  -6.3333333333333359E-006    -5645.3825426411113     
  -6.1333333333333379E-006    -5436.9919679261402     
  -5.9333333333333364E-006    -5185.4915479085530     
  -5.7333333333333349E-006    -4891.7114564254307     
  -5.5333333333333368E-006    -4556.8397933481301     
  -5.3333333333333354E-006    -4182.4317619484063     
  -5.1333333333333373E-006    -3770.4249769326825     
  -4.9333333333333358E-006    -3323.1633807488115     
  -4.7333333333333377E-006    -2843.4145996191123     
  -4.5333333333333362E-006    -2334.3773253811455     
  -4.3333333333333348E-006    -1799.6692607990944     
  -4.1333333333333367E-006    -1243.2980965100926     
  -3.9333333333333352E-006    -669.61471598227513     
  -3.7333333333333371E-006    -83.256066895072422     
  -3.5333333333333356E-006     510.91418403267522     
  -3.3333333333333376E-006     1107.8611859477292     
  -3.1333333333333361E-006     1702.4249470114576     
  -2.9333333333333346E-006     2289.3557949840965     
  -2.7333333333333365E-006     2863.3445412559195     
  -2.5333333333333384E-006     3419.0510990862440     
  -2.3333333333333336E-006     3951.1398587199014     
  -2.1333333333333355E-006     4454.3302085571604     
  -1.9333333333333374E-006     4923.4593613163470     
  -1.7333333333333393E-006     5353.5611179562002     
  -1.5333333333333345E-006     5739.9521534776923     
  -1.3333333333333364E-006     6078.3155128576436     
  -1.1333333333333383E-006     6364.7749807378368     
  -9.3333333333333343E-007     6595.9519185259969     
  -7.3333333333333535E-007     6768.9999693401560     
  -5.3333333333333726E-007     6881.6211128384484     
  -3.3333333333333918E-007     6932.0675947918116     
  -1.3333333333333432E-007     6919.1369157655472     
   6.6666666666663770E-008     6842.1713458957047     
   2.6666666666666185E-007     6701.0666803301092     
   4.6666666666666672E-007     6496.2875571539835     
   6.6666666666666480E-007     6228.8967364844384     
   8.6666666666666289E-007     5900.5836200496497     
   1.0666666666666610E-006     5513.6863125315622     
   1.2666666666666658E-006     5071.2034720188931     
   1.4666666666666639E-006     4576.7846363161170     
   1.6666666666666620E-006     4034.7014280478720     
   1.8666666666666669E-006     3449.7953011351806     
   2.0666666666666649E-006     2827.4146035350504     
   2.2666666666666630E-006     2173.3413803309772     
   2.4666666666666611E-006     1493.7169906314664     
   2.6666666666666660E-006     794.97149731613490     
   2.8666666666666641E-006     83.759561522622505     
   3.0666666666666622E-006    -633.09687287297527     
   3.2666666666666602E-006    -1348.6611860646387     
   3.4666666666666651E-006    -2055.9334270522136     
   3.6666666666666632E-006    -2747.9058542405551     
   3.8666666666666613E-006    -3417.6239521559419     
   4.0666666666666661E-006    -4058.2565712855649     
   4.2666666666666642E-006    -4663.1731848841682     
   4.4666666666666623E-006    -5226.0291915040980     
   4.6666666666666604E-006    -5740.8467507761652     
   4.8666666666666652E-006    -6202.0965294872913     
   5.0666666666666633E-006    -6604.7630982070859     
   5.2666666666666614E-006    -6944.4023213827722     
   5.4666666666666663E-006    -7217.1798000014205     
   5.6666666666666644E-006    -7419.8978307398465     
   5.8666666666666624E-006    -7550.0116070375861     
   6.0666666666666605E-006    -7605.6435109559361     
   6.2666666666666654E-006    -7585.5993665714204     
   6.4666666666666635E-006    -7489.3880758023561     
   6.6666666666666616E-006    -7317.2473151771683     
   6.8666666666666664E-006    -7070.1710315274349     
   7.0666666666666645E-006    -6749.9307672088389     
   7.2666666666666626E-006    -6359.0816550444006     
   7.4666666666666607E-006    -5900.9488257969242     
   7.6666666666666655E-006    -5379.5911725684027     
   7.8666666666666636E-006    -4799.7403496814213     
   8.0666666666666617E-006    -4166.7280425748577     
   8.2666666666666598E-006    -3486.4050450406530     
   8.4666666666666647E-006    -2765.0682676382917     
   8.6666666666666627E-006    -2009.3990799518092     
   8.8666666666666608E-006    -1226.4157579546618     
   9.0666666666666657E-006    -423.43742637524844     
   9.2666666666666638E-006     391.95205990507395     
   9.4666666666666619E-006     1211.9490624156265     
   9.6666666666666599E-006     2028.5960125378206     
   9.8666666666666648E-006     2833.8701181927800     
   1.0066666666666663E-005     3619.7928654658367     
   1.0266666666666661E-005     4378.5510254204173     
   1.0466666666666666E-005     5102.6123839246102     
   1.0666666666666664E-005     5784.8256591905310     
   1.0866666666666662E-005     6418.4914794095585     
   1.1066666666666660E-005     6997.4022064471546     
   1.1266666666666665E-005     7515.8590793199792     
   1.1466666666666663E-005     7968.6780561867708     
   1.1666666666666661E-005     8351.1942458598496     
   1.1866666666666666E-005     8659.2882114784989     
   1.2066666666666664E-005     8889.4307396896638     
   1.2266666666666662E-005     9038.7576400267499     
   1.2466666666666660E-005     9105.1539763095479     
   1.2666666666666665E-005     9087.3191099666910     
   1.2866666666666663E-005     8984.8169369452226     
   1.3066666666666661E-005     8798.0817778255750     
   1.3266666666666666E-005     8528.3999195954057     
   1.3466666666666664E-005     8177.8665499421204     
   1.3666666666666662E-005     7749.3262777313221     
   1.3866666666666660E-005     7246.3271815796797     
   1.4066666666666665E-005     6673.0878748517434     
   1.4266666666666663E-005     6034.4808267854769     
   1.4466666666666661E-005     5336.0292220751562     
   1.4666666666666666E-005     4583.9023269511526     
   1.4866666666666664E-005     3784.8956610440655     
   1.5066666666666662E-005     2946.3849036071324     
   1.5266666666666661E-005     2076.2483507422339     
   1.5466666666666665E-005     1182.7633959986233     
   1.5666666666666663E-005     274.48729832916780     
   1.5866666666666662E-005    -639.86263581352318     
   1.6066666666666660E-005    -1551.5155350753057     
   1.6266666666666665E-005    -2451.7311489641961     
   1.6466666666666663E-005    -3331.8611564098042     
   1.6666666666666661E-005    -4183.3972070353948     
   1.6866666666666666E-005    -4998.0127756214470     
   1.7066666666666664E-005    -5767.6175600021816     
   1.7266666666666662E-005    -6484.4272884498168     
   1.7466666666666660E-005    -7141.0562158448975     
   1.7666666666666665E-005    -7730.6251383037816     
   1.7866666666666663E-005    -8246.8727218675613     
   1.8066666666666661E-005    -8684.2601303951215     
   1.8266666666666666E-005    -9038.0509985220724     
   1.8466666666666664E-005    -9304.3696694762148     
   1.8666666666666662E-005    -9480.2267524993113     
   1.8866666666666660E-005    -9563.5219256999699     
   1.9066666666666665E-005    -9553.0423076144216     
   1.9266666666666663E-005    -9448.4549323179781     
   1.9466666666666661E-005    -9250.3030077116637     
   1.9666666666666666E-005    -8960.0174749112957     
   1.9866666666666664E-005    -8579.9292442117512     
   2.0066666666666662E-005    -8113.2854782253035     
   2.0266666666666660E-005    -7564.2543665236744     
   2.0466666666666665E-005    -6937.9122906843149     
   2.0666666666666663E-005    -6240.2120288988517     
   2.0866666666666661E-005    -5477.9265526760337     
   2.1066666666666659E-005    -4658.5754966085306     
   2.1266666666666664E-005    -3790.3402196334250     
   2.1466666666666662E-005    -2881.9685872060440     
   2.1666666666666660E-005    -1942.6806604617022     
   2.1866666666666665E-005    -982.07138871284712     
   2.2066666666666663E-005    -10.016173067103637     
   2.2266666666666661E-005     963.42604194433954     
   2.2466666666666659E-005     1928.1113919667966     
   2.2666666666666664E-005     2873.9141295633349     
   2.2866666666666662E-005     3790.8318843137686     
   2.3066666666666660E-005     4669.0946211795290     
   2.3266666666666665E-005     5499.2711364988909     
   2.3466666666666663E-005     6272.3750678172428     
   2.3666666666666661E-005     6979.9661526130112     
   2.3866666666666660E-005     7614.2465624753413     
   2.4066666666666664E-005     8168.1496356173147     
   2.4266666666666662E-005     8635.4307970514728     
   2.4466666666666661E-005     9010.7412146169918     
   2.4666666666666665E-005     9289.7053652069826     
   2.4866666666666663E-005     9468.9821697434181     
   2.5066666666666662E-005     9546.3135735461165     
   2.5266666666666660E-005     9520.5638759873218     
   2.5466666666666665E-005     9391.7351242125205     
   2.5666666666666663E-005     9160.9729411916724     
   2.5866666666666661E-005     8830.5514675307004     
   2.6066666666666666E-005     8403.8456449237656     
   2.6266666666666664E-005     7885.2997014413213     
   2.6466666666666662E-005     7280.3813688934324     
   2.6666666666666660E-005     6595.5301738216331     
   2.6866666666666665E-005     5838.0985124410527     
   2.7066666666666663E-005     5016.2808848687318     
   2.7266666666666661E-005     4139.0308335839763     
   2.7466666666666666E-005     3215.9645110515162     
   2.7666666666666664E-005     2257.2496550558685     
   2.7866666666666662E-005     1273.4839888014169     
   2.8066666666666667E-005     275.56589476492144     
   2.8266666666666658E-005    -725.43611981575259     
   2.8466666666666663E-005    -1718.4112773259690     
   2.8666666666666668E-005    -2692.3300405457003     
   2.8866666666666659E-005    -3636.3594598929030     
   2.9066666666666664E-005    -4539.9767726064383     
   2.9266666666666669E-005    -5393.0810194879923     
   2.9466666666666660E-005    -6186.1070253684702     
   2.9666666666666665E-005    -6910.1435326754099     
   2.9866666666666656E-005    -7557.0522434161649     
   3.0066666666666661E-005    -8119.5835663787066     
   3.0266666666666666E-005    -8591.4836969781918     
   3.0466666666666657E-005    -8967.5775646377660     
   3.0666666666666662E-005    -9243.8336888682497     
   3.0866666666666667E-005    -9417.3938521371401     
   3.1066666666666658E-005    -9486.5792768151568     
   3.1266666666666663E-005    -9450.8795892856651     
   3.1466666666666668E-005    -9310.9333480950427     
   3.1666666666666659E-005    -9068.5007754267663     
   3.1866666666666664E-005    -8726.4453684485252     
   3.2066666666666656E-005    -8288.7203422466046     
   3.2266666666666660E-005    -7760.3537089502970     
   3.2466666666666665E-005    -7147.4256301569985     
   3.2666666666666657E-005    -6457.0233439672820     
   3.2866666666666661E-005    -5697.1684056089107     
   3.3066666666666666E-005    -4876.7091554117105     
   3.3266666666666658E-005    -4005.1879486353896     
   3.3466666666666662E-005    -3092.6860223683034     
   3.3666666666666667E-005    -2149.6665295399180     
   3.3866666666666659E-005    -1186.8246215672907     
   3.4066666666666664E-005    -214.95923916135126     
   3.4266666666666668E-005     755.13334064826438     
   3.4466666666666660E-005     1712.7478117794071     
   3.4666666666666665E-005     2647.3505734722889     
   3.4866666666666656E-005     3548.6651509480739     
   3.5066666666666661E-005     4406.7747159815081     
   3.5266666666666666E-005     5212.2418141923863     
   3.5466666666666657E-005     5956.2455885711715     
   3.5666666666666662E-005     6630.7227009169073     
   3.5866666666666667E-005     7228.4992793553447     
   3.6066666666666658E-005     7743.3950600459548     
   3.6266666666666663E-005     8170.2903383421481     
   3.6466666666666668E-005     8505.1586528482767     
   3.6666666666666659E-005     8745.0668831431285     
   3.6866666666666664E-005     8888.1533266874012     
   3.7066666666666669E-005     8933.6087879275892     
   3.7266666666666660E-005     8881.6579793488090     
   3.7466666666666665E-005     8733.5553738432118     
   3.7666666666666656E-005     8491.5932121436017     
   3.7866666666666661E-005     8159.1031509022296     
   3.8066666666666666E-005     7740.4421874321079     
   3.8266666666666657E-005     7240.9565966548062     
   3.8466666666666662E-005     6666.9065148152940     
   3.8666666666666667E-005     6025.3585067491094     
   3.8866666666666658E-005     5324.0593019436274     
   3.9066666666666663E-005     4571.2990488145351     
   3.9266666666666668E-005     3775.7782712132648     
   3.9466666666666659E-005     2946.4979664917214     
   3.9666666666666664E-005     2092.6656893717300     
   3.9866666666666655E-005     1223.6209268469722     
   4.0066666666666660E-005     348.76636536820718     
   4.0266666666666665E-005    -522.50435873115634     
   4.0466666666666656E-005    -1380.8932229743234     
   4.0666666666666661E-005    -2217.3017850550823     
   4.0866666666666666E-005    -3022.9501946436021     
   4.1066666666666657E-005    -3789.4985109129357     
   4.1266666666666662E-005    -4509.1639685941718     
   4.1466666666666667E-005    -5174.8157701303371     
   4.1666666666666658E-005    -5780.0481986080958     
   4.1866666666666663E-005    -6319.2220686748306     
   4.2066666666666668E-005    -6787.4881521100624     
   4.2266666666666660E-005    -7180.7936014289680     
   4.2466666666666664E-005    -7495.8886147240883     
   4.2666666666666656E-005    -7730.3318948388978     
   4.2866666666666661E-005    -7882.5038917775437     
   4.3066666666666665E-005    -7951.6246277566070     
   4.3266666666666657E-005    -7937.7671061508900     
   4.3466666666666662E-005    -7841.8646409545636     
   4.3666666666666666E-005    -7665.7007173631728     
   4.3866666666666658E-005    -7411.8806760561529     
   4.4066666666666663E-005    -7083.7886795588611     
   4.4266666666666667E-005    -6685.5294089794934     
   4.4466666666666659E-005    -6221.8581870516673     
   4.4666666666666664E-005    -5698.1096134193367     
   4.4866666666666655E-005    -5120.1258456909736     
   4.5066666666666660E-005    -4494.1863019191424     
   4.5266666666666665E-005    -3826.9388377187133     
   4.5466666666666656E-005    -3125.3348630047294     
   4.5666666666666661E-005    -2396.5646877673576     
   4.5866666666666666E-005    -1647.9942416457116     
   4.6066666666666657E-005    -887.10225957723333     
   4.6266666666666662E-005    -121.41715367140098     
   4.6466666666666667E-005     641.54695164476914     
   4.6666666666666658E-005     1394.3570069191592     
   4.6866666666666663E-005     2129.7309878843798     
   4.7066666666666668E-005     2840.6128583020945     
   4.7266666666666659E-005     3520.2504131799651     
   4.7466666666666664E-005     4162.2714653808225     
   4.7666666666666655E-005     4760.7532463155376     
   4.7866666666666660E-005     5310.2816949945709     
   4.8066666666666665E-005     5805.9920442746215     
   4.8266666666666656E-005     6243.5907785789541     
   4.8466666666666661E-005     6619.3655162265895     
   4.8666666666666666E-005     6930.1830795410324     
   4.8866666666666657E-005     7173.4848495794522     
   4.9066666666666662E-005     7347.2922009789663     
   4.9266666666666667E-005     7450.2220715839394     
   4.9466666666666658E-005     7481.5119544824020     
   4.9666666666666663E-005     7441.0515025884251     
   4.9866666666666655E-005     7329.4123164205657     
   5.0066666666666659E-005     7147.8590357978446     
   5.0266666666666664E-005     6898.3406873228696     
   5.0466666666666656E-005     6583.4588945801852     
   5.0666666666666660E-005     6206.4158023062309     
   5.0866666666666665E-005     5770.9503228642607     
   5.1066666666666657E-005     5281.2759549592110     
   5.1266666666666661E-005     4742.0334663549984     
   5.1466666666666666E-005     4158.2572149432981     
   5.1666666666666658E-005     3535.3606933510823     
   5.1866666666666662E-005     2879.1275187741971     
   5.2066666666666667E-005     2195.7016391517541     
   5.2266666666666659E-005     1491.5569719043217     
   5.2466666666666664E-005     773.44461478841049     
   5.2666666666666655E-005     48.312359321527722     
   5.2866666666666660E-005    -676.79438769064234     
   5.3066666666666665E-005    -1394.8378050810043     
   5.3266666666666656E-005    -2098.8846450533329     
   5.3466666666666661E-005    -2782.1812403677959     
   5.3666666666666666E-005    -3438.2030350654177     
   5.3866666666666657E-005    -4060.6785768166505     
   5.4066666666666662E-005    -4643.6023776345155     
   5.4266666666666667E-005    -5181.2459397611246     
   5.4466666666666658E-005    -5668.1905190935058     
   5.4666666666666663E-005    -6099.3787604829531     
   5.4866666666666668E-005    -6470.1951884834953     
   5.5066666666666659E-005    -6776.5625806047547     
   5.5266666666666664E-005    -7015.0387559151823     
   5.5466666666666655E-005    -7182.8974692731326     
   5.5666666666666660E-005    -7278.1803495009690     
   5.5866666666666665E-005    -7299.7137083247035     
   5.6066666666666656E-005    -7247.0902861527711     
   5.6266666666666661E-005    -7120.6359698899550     
   5.6466666666666666E-005    -6921.3644744144231     
   5.6666666666666657E-005    -6650.9510303276384     
   5.6866666666666662E-005    -6311.7216987025722     
   5.7066666666666667E-005    -5906.6685788252635     
   5.7266666666666658E-005    -5439.4759116493733     
   5.7466666666666663E-005    -4914.5484394499108     
   5.7666666666666654E-005    -4337.0164611172659     
   5.7866666666666659E-005    -3712.7110488742187     
   5.8066666666666664E-005    -3048.0991632333598     
   5.8266666666666655E-005    -2350.1836414502877     
   5.8466666666666660E-005    -1626.3788594897117     
   5.8666666666666665E-005    -884.38437754889264     
   5.8866666666666656E-005    -132.06758298753869     
   5.9066666666666661E-005     622.62740323582216     
   5.9266666666666666E-005     1371.7435643482731     
   5.9466666666666657E-005     2107.3536315787801     
   5.9666666666666662E-005     2821.5939994020023     
   5.9866666666666667E-005     3506.7061942823971     
   6.0066666666666659E-005     4155.1004169127800     
   6.0266666666666663E-005     4759.4447199012093     
   6.0466666666666655E-005     5312.7817910720341     
   6.0666666666666660E-005     5808.6550591813957     
   6.0866666666666664E-005     6241.2363385023136     
   6.1066666666666656E-005     6605.4295869977868     
   6.1266666666666661E-005     6896.9476224726086     
   6.1466666666666665E-005     7112.3513466366921     
   6.1666666666666657E-005     7249.0628316614348     
   6.1866666666666662E-005     7305.3565764285504     
   6.2066666666666666E-005     7280.3535820500565     
   6.2266666666666658E-005     7174.0182624345025     
   6.2466666666666663E-005     6987.1759647256922     
   6.2666666666666668E-005     6721.5406389370637     
   6.2866666666666659E-005     6379.7426928709037     
   6.3066666666666664E-005     5965.3453154822328     
   6.3266666666666655E-005     5482.8383115576917     
   6.3466666666666660E-005     4937.5910076935415     
   6.3666666666666665E-005     4335.7746215511997     
   6.3866666666666656E-005     3684.2544723615310     
   6.4066666666666661E-005     2990.4681944749245     
   6.4266666666666666E-005     2262.3060344840410     
   6.4466666666666657E-005     1508.0028687043593     
   6.4666666666666662E-005     736.05138150872119     
   6.4866666666666667E-005    -44.868875688331826     
   6.5066666666666658E-005    -825.95390052899450     
   6.5266666666666663E-005    -1598.3411531840959     
   6.5466666666666654E-005    -2353.1914220479571     
   6.5666666666666659E-005    -3081.7918967427786     
   6.5866666666666664E-005    -3775.6790512417178     
   6.6066666666666655E-005    -4426.7742521809687     
   6.6266666666666660E-005    -5027.5201025660526     
   6.6466666666666665E-005    -5570.9984375095109     
   6.6666666666666656E-005    -6051.0273840859609     
   6.6866666666666661E-005    -6462.2283689404612     
   6.7066666666666666E-005    -6800.0654049868290     
   6.7266666666666657E-005    -7060.8668388345986     
   6.7466666666666662E-005    -7241.8407847619610     
   6.7666666666666667E-005    -7341.0906824485692     
   6.7866666666666658E-005    -7357.6351598338388     
   6.8066666666666663E-005    -7291.4336877543456     
   6.8266666666666655E-005    -7143.4108645842216     
   6.8466666666666659E-005    -6915.4683284665298     
   6.8666666666666664E-005    -6610.4759440468488     
   6.8866666666666656E-005    -6232.2409311277806     
   6.9066666666666660E-005    -5785.4519131480783     
   6.9266666666666665E-005    -5275.6000468247830     
   6.9466666666666657E-005    -4708.8900100212068     
   6.9666666666666661E-005    -4092.1460635591611     
   6.9866666666666666E-005    -3432.7171019574853     
   7.0066666666666658E-005    -2738.3867639717414     
   7.0266666666666662E-005    -2017.2840311139278     
   7.0466666666666654E-005    -1277.7918879327453     
   7.0666666666666659E-005    -528.45063704907807     
   7.0866666666666664E-005     222.14686825253540     
   7.1066666666666655E-005     965.46548822449336     
   7.1266666666666660E-005     1693.1391674884217     
   7.1466666666666665E-005     2397.0781504157640     
   7.1666666666666656E-005     3069.5668270182314     
   7.1866666666666661E-005     3703.3456854797510     
   7.2066666666666666E-005     4291.6843120583189     
   7.2266666666666657E-005     4828.4387942400544     
   7.2466666666666662E-005     5308.1084391498644     
   7.2666666666666667E-005     5725.8871662118936     
   7.2866666666666658E-005     6077.7176741918774     
   7.3066666666666663E-005     6360.3388267123782     
   7.3266666666666654E-005     6571.3298759658192     
   7.3466666666666659E-005     6709.1404530889104     
   7.3666666666666664E-005     6773.0992427688898     
   7.3866666666666655E-005     6763.4072921423358     
   7.4066666666666660E-005     6681.1062777097386     
   7.4266666666666665E-005     6528.0385347918464     
   7.4466666666666656E-005     6306.7969330632422     
   7.4666666666666661E-005     6020.6747334076263     
   7.4866666666666666E-005     5673.6233176574478     
   7.5066666666666657E-005     5270.2039582586631     
   7.5266666666666662E-005     4815.5439679075025     
   7.5466666666666653E-005     4315.2804677692939     