  -3.3333333333333335E-005     0.0000000000000000     
  -3.3133333333333337E-005     0.0000000000000000     
  -3.2933333333333332E-005     0.0000000000000000     
  -3.2733333333333334E-005     0.0000000000000000     
  -3.2533333333333336E-005     0.0000000000000000     
  -3.2333333333333338E-005     0.0000000000000000     
  -3.2133333333333333E-005     0.0000000000000000     
  -3.1933333333333335E-005     0.0000000000000000     
  -3.1733333333333337E-005     0.0000000000000000     
  -3.1533333333333332E-005     0.0000000000000000     
  -3.1333333333333334E-005     0.0000000000000000     
  -3.1133333333333336E-005     0.0000000000000000     
  -3.0933333333333338E-005     0.0000000000000000     
  -3.0733333333333333E-005     0.0000000000000000     
  -3.0533333333333335E-005     0.0000000000000000     
  -3.0333333333333337E-005     0.0000000000000000     
  -3.0133333333333335E-005     0.0000000000000000     
  -2.9933333333333334E-005     0.0000000000000000     
  -2.9733333333333336E-005     0.0000000000000000     
  -2.9533333333333334E-005     0.0000000000000000     
  -2.9333333333333336E-005     0.0000000000000000     
  -2.9133333333333334E-005     0.0000000000000000     
  -2.8933333333333336E-005     0.0000000000000000     
  -2.8733333333333335E-005     0.0000000000000000     
  -2.8533333333333333E-005     0.0000000000000000     
  -2.8333333333333335E-005     0.0000000000000000     
  -2.8133333333333337E-005     0.0000000000000000     
  -2.7933333333333336E-005     0.0000000000000000     
  -2.7733333333333334E-005     0.0000000000000000     
  -2.7533333333333336E-005     0.0000000000000000     
  -2.7333333333333335E-005     0.0000000000000000     
  -2.7133333333333333E-005     0.0000000000000000     
  -2.6933333333333335E-005     0.0000000000000000     
  -2.6733333333333337E-005     0.0000000000000000     
  -2.6533333333333336E-005     0.0000000000000000     
  -2.6333333333333334E-005     0.0000000000000000     
  -2.6133333333333336E-005     0.0000000000000000     
  -2.5933333333333335E-005     0.0000000000000000     
  -2.5733333333333333E-005     0.0000000000000000     
  -2.5533333333333335E-005     0.0000000000000000     
  -2.5333333333333337E-005     0.0000000000000000     
  -2.5133333333333336E-005     0.0000000000000000     
  -2.4933333333333334E-005     0.0000000000000000     
  -2.4733333333333336E-005     0.0000000000000000     
  -2.4533333333333334E-005     0.0000000000000000     
  -2.4333333333333333E-005     0.0000000000000000     
  -2.4133333333333335E-005     0.0000000000000000     
  -2.3933333333333337E-005     0.0000000000000000     
  -2.3733333333333335E-005     0.0000000000000000     
  -2.3533333333333334E-005     0.0000000000000000     
  -2.3333333333333336E-005     0.0000000000000000     
  -2.3133333333333338E-005     0.0000000000000000     
  -2.2933333333333336E-005     0.0000000000000000     
  -2.2733333333333335E-005     0.0000000000000000     
  -2.2533333333333337E-005     0.0000000000000000     
  -2.2333333333333335E-005     0.0000000000000000     
  -2.2133333333333334E-005     2.3378000163201454E-041
  -2.1933333333333336E-005     7.0503369803879441E-041
  -2.1733333333333338E-005     1.3389564033359944E-040
  -2.1533333333333336E-005     1.3723994131254794E-040
  -2.1333333333333335E-005    -1.4655320979704202E-040
  -2.1133333333333337E-005    -1.0379230471890620E-039
  -2.0933333333333335E-005    -2.7454393706550106E-039
  -2.0733333333333334E-005    -4.9391561543662004E-039
  -2.0533333333333336E-005    -6.6324741442543229E-039
  -2.0333333333333337E-005    -6.3992183964122833E-039
  -2.0133333333333336E-005     1.1657353985197260E-039
  -1.9933333333333334E-005     2.4938175160199177E-038
  -1.9733333333333336E-005     8.2317740184680306E-038
  -1.9533333333333335E-005     1.6860756894566970E-037
  -1.9333333333333333E-005     2.7722638570280156E-037
  -1.9133333333333335E-005     3.4779340162782734E-037
  -1.8933333333333337E-005     2.6162002982841335E-037
  -1.8733333333333336E-005    -2.0688764728235477E-037
  -1.8533333333333334E-005    -1.3637979864208833E-036
  -1.8333333333333336E-005    -3.4772873471862788E-036
  -1.8133333333333335E-005    -6.5086557212320093E-036
  -1.7933333333333337E-005    -9.6285945391165287E-036
  -1.7733333333333335E-005    -1.0568774967246335E-035
  -1.7533333333333337E-005    -5.0363313735333821E-036
  -1.7333333333333336E-005     1.3283426069664594E-035
  -1.7133333333333334E-005     5.1260258768602426E-035
  -1.6933333333333336E-005     1.1228038526835490E-034
  -1.6733333333333335E-005     1.8873659086409133E-034
  -1.6533333333333337E-005     2.5125039693640483E-034
  -1.6333333333333335E-005     2.3728615421020074E-034
  -1.6133333333333337E-005     4.5792080100504374E-035
  -1.5933333333333336E-005    -4.5060415289006123E-034
  -1.5733333333333334E-005    -1.3604290261058271E-033
  -1.5533333333333336E-005    -2.6805890002992777E-033
  -1.5333333333333334E-005    -4.1520372320898541E-033
  -1.5133333333333336E-005    -5.0860138612289369E-033
  -1.4933333333333335E-005    -4.2273416464619775E-033
  -1.4733333333333337E-005     2.2065784952651933E-034
  -1.4533333333333335E-005     1.0230680149925110E-032
  -1.4333333333333337E-005     2.7050611563218294E-032
  -1.4133333333333336E-005     4.9647087818995220E-032
  -1.3933333333333334E-005     7.2596127698553037E-032
  -1.3733333333333336E-005     8.3935475043671403E-032
  -1.3533333333333335E-005     6.4075975934488471E-032
  -1.3333333333333337E-005    -1.2502525705032481E-032
  -1.3133333333333335E-005    -1.7064986789807002E-031
  -1.2933333333333337E-005    -4.2119329920331301E-031
  -1.2733333333333336E-005    -7.4047107953619203E-031
  -1.2533333333333338E-005    -1.0455362726645907E-030
  -1.2333333333333336E-005    -1.1727225478511761E-030
  -1.2133333333333335E-005    -8.7324496686978604E-031
  -1.1933333333333337E-005     1.5524900003336837E-031
  -1.1733333333333335E-005     2.1809343689354677E-030
  -1.1533333333333337E-005     5.2804255243827050E-030
  -1.1333333333333336E-005     9.1175612279110370E-030
  -1.1133333333333337E-005     1.2698319444825273E-029
  -1.0933333333333336E-005     1.4188861530511194E-029
  -1.0733333333333334E-005     1.0934127375622740E-029
  -1.0533333333333336E-005    -1.5091714359429250E-031
  -1.0333333333333335E-005    -2.1654704169804880E-029
  -1.0133333333333337E-005    -5.4131178675046029E-029
  -9.9333333333333354E-006    -9.4066291670998502E-029
  -9.7333333333333373E-006    -1.3176765361609005E-028
  -9.5333333333333358E-006    -1.4997549111109644E-028
  -9.3333333333333343E-006    -1.2435605653548555E-028
  -9.1333333333333362E-006    -2.7224613041665586E-029
  -8.9333333333333348E-006     1.6435666614201304E-028
  -8.7333333333333367E-006     4.5577140066865729E-028
  -8.5333333333333352E-006     8.1856372781770461E-028
  -8.3333333333333371E-006     1.1741901128079661E-027
  -8.1333333333333356E-006     1.3839859641049587E-027
  -7.9333333333333376E-006     1.2538330582687612E-027
  -7.7333333333333361E-006     5.6285380697628940E-028
  -7.5333333333333346E-006    -8.7654942628429966E-028
  -7.3333333333333365E-006    -3.1261082069346615E-027
  -7.1333333333333351E-006    -6.0062418713458939E-027
  -6.9333333333333370E-006    -8.9824641654331487E-027
  -6.7333333333333355E-006    -1.1094981005069011E-026
  -6.5333333333333374E-006    -1.0986246357799369E-026
  -6.3333333333333359E-006    -7.0846394142375743E-027
  -6.1333333333333379E-006     2.0120763161493959E-027
  -5.9333333333333364E-006     1.6948774340944068E-026
  -5.7333333333333349E-006     3.6881791957733349E-026
  -5.5333333333333368E-006     5.8753697113604788E-026
  -5.3333333333333354E-006     7.6817371058651479E-026
  -5.1333333333333373E-006     8.2725575308037317E-026
  -4.9333333333333358E-006     6.6516855157731583E-026
  -4.7333333333333377E-006     1.8744600477623293E-026
  -4.5333333333333362E-006    -6.6218785182481109E-026
  -4.3333333333333348E-006    -1.8602512078900407E-025
  -4.1333333333333367E-006    -3.2612653257266634E-025
  -3.9333333333333352E-006    -4.5675827525609676E-025
  -3.7333333333333371E-006    -5.3277617507495421E-025
  -3.5333333333333356E-006    -4.9807679429621688E-025
  -3.3333333333333376E-006    -2.9591870398972227E-025
  -3.1333333333333361E-006     1.1457481310213658E-025
  -2.9333333333333346E-006     7.3716069591865598E-025
  -2.7333333333333365E-006     1.5161092692908469E-024
  -2.5333333333333384E-006     2.3187049858697233E-024
  -2.3333333333333336E-006     2.9304164890057710E-024
  -2.1333333333333355E-006     3.0710301347201591E-024
  -1.9333333333333374E-006     2.4383622212482837E-024
  -1.7333333333333393E-006     7.8169593056090482E-025
  -1.5333333333333345E-006    -2.0003237533789888E-024
  -1.3333333333333364E-006    -5.7523169849794142E-024
  -1.1333333333333383E-006    -9.9706102717211373E-024
  -9.3333333333333343E-007    -1.3761159708013053E-023
  -7.3333333333333535E-007    -1.5883590980581339E-023
  -5.3333333333333726E-007    -1.4912251018119909E-023
  -3.3333333333333918E-007    -9.5278967273244081E-024
  -1.3333333333333432E-007     1.0756122180466952E-024
   6.6666666666663770E-008     1.6724210103147624E-023
   2.6666666666666185E-007     3.5833127369050310E-023
   4.6666666666666672E-007     5.5145876175368093E-023
   6.6666666666666480E-007     6.9791930145462334E-023
   8.6666666666666289E-007     7.3796167011833576E-023
   1.0666666666666610E-006     6.1113712889618157E-023
   1.2666666666666658E-006     2.7158153137109539E-023
   1.4666666666666639E-006    -2.9353286643009239E-023
   1.6666666666666620E-006    -1.0457568749263622E-022
   1.8666666666666669E-006    -1.8821501626903817E-022
   2.0666666666666649E-006    -2.6327060464303415E-022
   2.2666666666666630E-006    -3.0737049147614135E-022
   2.4666666666666611E-006    -2.9604675131556552E-022
   2.6666666666666660E-006    -2.0794561772892985E-022
   2.8666666666666641E-006    -3.1474893611299105E-023
   3.0666666666666622E-006     2.2818399331846397E-022
   3.2666666666666602E-006     5.4330785910360042E-022
   3.4666666666666651E-006     8.6106250783435209E-022
   3.6666666666666632E-006     1.1060801311445511E-021
   3.8666666666666613E-006     1.1896338989230820E-021
   4.0666666666666661E-006     1.0257943868881779E-021
   4.2666666666666642E-006     5.5337963283479562E-022
   4.4666666666666623E-006    -2.3939103008963235E-022
   4.6666666666666604E-006    -1.2924954975637383E-021
   4.8666666666666652E-006    -2.4602946273886947E-021
   5.0666666666666633E-006    -3.5129578460967312E-021
   5.2666666666666614E-006    -4.1586398283083848E-021
   5.4666666666666663E-006    -4.0889405941252987E-021
   5.6666666666666644E-006    -3.0455547000314057E-021
   5.8666666666666624E-006    -9.0010925100167858E-022
   6.0666666666666605E-006     2.2669057982072704E-021
   6.2666666666666654E-006     6.1071568381193428E-021
   6.4666666666666635E-006     9.9866696776269330E-021
   6.6666666666666616E-006     1.3028337205658609E-020
   6.8666666666666664E-006     1.4226487258200195E-020
   7.0666666666666645E-006     1.2632512744287060E-020
   7.2666666666666626E-006     7.5935436513807182E-021
   7.4666666666666607E-006    -9.9245374559834809E-022
   7.6666666666666655E-006    -1.2458317015917139E-020
   7.8666666666666636E-006    -2.5249027781606761E-020
   8.0666666666666617E-006    -3.6964127147810417E-020
   8.2666666666666598E-006    -4.4606480072862030E-020
   8.4666666666666647E-006    -4.5050539962068738E-020
   8.6666666666666627E-006    -3.5697834944367426E-020
   8.8666666666666608E-006    -1.5234125536480358E-020
   9.0666666666666657E-006     1.5648091115202175E-020
   9.2666666666666638E-006     5.3734466195743255E-020
   9.4666666666666619E-006     9.3162982536432553E-020
   9.6666666666666599E-006     1.2584009899420426E-019
   9.8666666666666648E-006     1.4247969308659731E-019
   1.0066666666666663E-005     1.3423259040184436E-019
   1.0266666666666661E-005     9.4735092586427154E-020
   1.0466666666666666E-005     2.2259860725747241E-020
   1.0666666666666664E-005    -7.8465603116375928E-020
   1.0866666666666662E-005    -1.9526596840368389E-019
   1.1066666666666660E-005    -3.0881157871327665E-019
   1.1266666666666665E-005    -3.9451747906045377E-019
   1.1466666666666663E-005    -4.2611547244950732E-019
   1.1666666666666661E-005    -3.8062766111599379E-019
   1.1866666666666666E-005    -2.4409525344276312E-019
   1.2066666666666664E-005    -1.7073477141100872E-020
   1.2266666666666662E-005     2.8132209427563996E-019
   1.2466666666666660E-005     6.1206158210922627E-019
   1.2666666666666665E-005     9.1855691709356853E-019
   1.2866666666666663E-005     1.1332461412624429E-018
   1.3066666666666661E-005     1.1881816059709469E-018
   1.3266666666666666E-005     1.0285110611780656E-018
   1.3466666666666664E-005     6.2685925075582405E-019
   1.3666666666666662E-005    -4.0768432582585962E-021
   1.3866666666666660E-005    -8.0371322190621559E-019
   1.4066666666666665E-005    -1.6633066336882585E-018
   1.4266666666666663E-005    -2.4351304841274984E-018
   1.4466666666666661E-005    -2.9515533505915801E-018
   1.4666666666666666E-005    -3.0525810698384490E-018
   1.4866666666666664E-005    -2.6183967468760044E-018
   1.5066666666666662E-005    -1.6016303162955060E-018
   1.5266666666666661E-005    -5.2958167807333890E-020
   1.5466666666666665E-005     1.8664627514383952E-018
   1.5666666666666663E-005     3.8910285974816485E-018
   1.5866666666666662E-005     5.6779766449011736E-018
   1.6066666666666660E-005     6.8551080330262378E-018
   1.6266666666666665E-005     7.0839446194604798E-018
   1.6466666666666663E-005     6.1292573041684166E-018
   1.6666666666666661E-005     3.9228697178260344E-018
   1.6866666666666666E-005     6.0838557604767416E-019
   1.7066666666666664E-005    -3.4453471345259962E-018
   1.7266666666666662E-005    -7.6704054496303083E-018
   1.7466666666666660E-005    -1.1367793547048153E-017
   1.7666666666666665E-005    -1.3811742572263568E-017
   1.7866666666666663E-005    -1.4376721217869656E-017
   1.8066666666666661E-005    -1.2666842352587986E-017
   1.8266666666666666E-005    -8.6234385751642436E-018
   1.8466666666666664E-005    -2.5868208311417384E-018
   1.8666666666666662E-005     4.7066965333214638E-018
   1.8866666666666660E-005     1.2201820199068192E-017
   1.9066666666666665E-005     1.8671656521228629E-017
   1.9266666666666663E-005     2.2917429460131883E-017
   1.9466666666666661E-005     2.3989603621273875E-017
   1.9666666666666666E-005     2.1390790647984763E-017
   1.9866666666666664E-005     1.5218748617662239E-017
   2.0066666666666662E-005     6.2138037899308642E-018
   2.0266666666666660E-005    -4.3108964532416258E-018
   2.0466666666666665E-005    -1.4657534702448268E-017
   2.0666666666666663E-005    -2.3027843026180394E-017
   2.0866666666666661E-005    -2.7858951093457951E-017
   2.1066666666666659E-005    -2.8150078432246344E-017
   2.1266666666666664E-005    -2.3713547639915560E-017
   2.1466666666666662E-005    -1.5290174261022206E-017
   2.1666666666666660E-005    -4.4892574226141762E-018
   2.1866666666666665E-005     6.4560051788942115E-018
   2.2066666666666663E-005     1.5090380814714393E-017
   2.2266666666666661E-005     1.9232945646627019E-017
   2.2466666666666659E-005     1.7478350192626365E-017
   2.2666666666666664E-005     9.6017394170970809E-018
   2.2866666666666662E-005    -3.2265647358531426E-018
   2.3066666666666660E-005    -1.8482620137806605E-017
   2.3266666666666665E-005    -3.2608867299193117E-017
   2.3466666666666663E-005    -4.1581828456879625E-017
   2.3666666666666661E-005    -4.1644298237100382E-017
   2.3866666666666660E-005    -3.0080656604082793E-017
   2.4066666666666664E-005    -5.8934592230211039E-018
   2.4266666666666662E-005     2.9748982002135179E-017
   2.4466666666666661E-005     7.3390770682139197E-017
   2.4666666666666665E-005     1.1952942528749794E-016
   2.4866666666666663E-005     1.6119372530853884E-016
   2.5066666666666662E-005     1.9076589535859447E-016
   2.5266666666666660E-005     2.0091922330346165E-016
   2.5466666666666665E-005     1.8552582338467737E-016
   2.5666666666666663E-005     1.4041606776229498E-016
   2.5866666666666661E-005     6.3922438591506002E-017
   2.6066666666666666E-005    -4.2789626659734250E-017
   2.6266666666666664E-005    -1.7554160801848048E-016
   2.6466666666666662E-005    -3.2700381889544662E-016
   2.6666666666666660E-005    -4.8651128752796360E-016
   2.6866666666666665E-005    -6.3980384065340359E-016
   2.7066666666666663E-005    -7.6877170833638007E-016
   2.7266666666666661E-005    -8.5142987517478962E-016
   2.7466666666666666E-005    -8.6247343748262491E-016
   2.7666666666666664E-005    -7.7482211414540760E-016
   2.7866666666666662E-005    -5.6253656174539330E-016
   2.8066666666666667E-005    -2.0530485874995614E-016
   2.8266666666666658E-005     3.0562037385620489E-016
   2.8466666666666663E-005     9.6057406756822286E-016
   2.8666666666666668E-005     1.7247792257467769E-015
   2.8866666666666659E-005     2.5332326410296164E-015
   2.9066666666666664E-005     3.2889205512076826E-015
   2.9266666666666669E-005     3.8660797522186231E-015
   2.9466666666666660E-005     4.1198057323743500E-015
   2.9666666666666665E-005     3.9025427211022312E-015
   2.9866666666666656E-005     3.0868274081063924E-015
   3.0066666666666661E-005     1.5922942190296744E-015
   3.0266666666666666E-005    -5.8648583034321302E-016
   3.0466666666666657E-005    -3.3558390825919562E-015
   3.0666666666666662E-005    -6.5076952302876949E-015
   3.0866666666666667E-005    -9.7181525012187758E-015
   3.1066666666666658E-005    -1.2563829560759368E-014
   3.1266666666666663E-005    -1.4557933287921520E-014
   3.1466666666666668E-005    -1.5205074186307580E-014
   3.1666666666666659E-005    -1.4070674364863036E-014
   3.1866666666666664E-005    -1.0857467014545554E-014
   3.2066666666666656E-005    -5.4789702950909011E-015
   3.2266666666666660E-005     1.8818763608716459E-015
   3.2466666666666665E-005     1.0740469030904129E-014
   3.2666666666666657E-005     2.0314558215035522E-014
   3.2866666666666661E-005     2.9570439126749365E-014
   3.3066666666666666E-005     3.7312028779226990E-014
   3.3266666666666658E-005     4.2307144312601572E-014
   3.3466666666666662E-005     4.3439162816757363E-014
   3.3666666666666667E-005     3.9866729134794342E-014
   3.3866666666666659E-005     3.1170697653017469E-014
   3.4066666666666664E-005     1.7466807983415393E-014
   3.4266666666666668E-005    -5.3526334197245611E-016
   3.4466666666666660E-005    -2.1540225589474777E-014
   3.4666666666666665E-005    -4.3748952418531948E-014
   3.4866666666666656E-005    -6.5009681403572334E-014
   3.5066666666666661E-005    -8.3025131997374248E-014
   3.5266666666666666E-005    -9.5593033733591735E-014
   3.5466666666666657E-005    -1.0085153198739188E-013
   3.5666666666666662E-005    -9.7498424113242568E-014
   3.5866666666666667E-005    -8.4955447477647040E-014
   3.6066666666666658E-005    -6.3454981631086910E-014
   3.6266666666666663E-005    -3.4036759743637841E-014
   3.6466666666666668E-005     1.5451036868990761E-015
   3.6666666666666659E-005     4.0991583618864292E-014
   3.6866666666666664E-005     8.1680037304259333E-014
   3.7066666666666669E-005     1.2090334492548788E-013
   3.7266666666666660E-005     1.5609042473400952E-013
   3.7466666666666665E-005     1.8497403474163789E-013
   3.7666666666666656E-005     2.0567942593380145E-013
   3.7866666666666661E-005     2.1672272132953054E-013
   3.8066666666666666E-005     2.1692385032165547E-013
   3.8266666666666657E-005     2.0525919429863839E-013
   3.8466666666666662E-005     1.8069559145306245E-013
   3.8666666666666667E-005     1.4206001864069749E-013
   3.8866666666666658E-005     8.8005667158689556E-014
   3.9066666666666663E-005     1.7129406648146161E-014
   3.9266666666666668E-005    -7.1717539530833229E-014
   3.9466666666666659E-005    -1.7891409518457540E-013
   3.9666666666666664E-005    -3.0336725954304568E-013
   3.9866666666666655E-005    -4.4169313322009557E-013
   4.0066666666666660E-005    -5.8738584916990761E-013
   4.0266666666666665E-005    -7.3012778836824800E-013
   4.0466666666666656E-005    -8.5541843905524093E-013
   4.0666666666666661E-005    -9.4471061584546158E-013
   4.0866666666666666E-005    -9.7622655135616928E-013
   4.1066666666666657E-005    -9.2657921468243348E-013
   4.1266666666666662E-005    -7.7323928866853987E-013
   4.1466666666666667E-005    -4.9778433012013046E-013
   4.1666666666666658E-005    -8.9718238737393067E-014
   4.1866666666666663E-005     4.4949186842228906E-013
   4.2066666666666668E-005     1.1026487792620235E-012
   4.2266666666666660E-005     1.8339384192134989E-012
   4.2466666666666664E-005     2.5875749409921894E-012
   4.2666666666666656E-005     3.2886108046201714E-012
   4.2866666666666661E-005     3.8464241698118179E-012
   4.3066666666666665E-005     4.1611678146147778E-012
   4.3266666666666657E-005     4.1331450686784014E-012
   4.3466666666666662E-005     3.6746668565772664E-012
   4.3666666666666666E-005     2.7235060312570124E-012
   4.3866666666666658E-005     1.2566439859795912E-012
   4.4066666666666663E-005    -6.9736515038679732E-013
   4.4266666666666667E-005    -3.0492912819098037E-012
   4.4466666666666659E-005    -5.6452391280436702E-012
   4.4666666666666664E-005    -8.2694449512691362E-012
   4.4866666666666655E-005    -1.0654949846012562E-011
   4.5066666666666660E-005    -1.2502508562551581E-011
   4.5266666666666665E-005    -1.3507127138423723E-011
   4.5466666666666656E-005    -1.3390551816765740E-011
   4.5666666666666661E-005    -1.1936969921526631E-011
   4.5866666666666666E-005    -9.0283131314864884E-012
   4.6066666666666657E-005    -4.6749623550213452E-012
   4.6266666666666662E-005     9.6249509910601242E-013
   4.6466666666666667E-005     7.5644308885334863E-012
   4.6666666666666658E-005     1.4659258600807402E-011
   4.6866666666666663E-005     2.1648128407437080E-011
   4.7066666666666668E-005     2.7846876599443817E-011
   4.7266666666666659E-005     3.2543002553366122E-011
   4.7466666666666664E-005     3.5063312204571148E-011
   4.7666666666666655E-005     3.4846137601263397E-011
   4.7866666666666660E-005     3.1510770989401537E-011
   4.8066666666666665E-005     2.4916349004437642E-011
   4.8266666666666656E-005     1.5202845663035994E-011
   4.8466666666666661E-005     2.8079692972492838E-012
   4.8666666666666666E-005    -1.1543675304792001E-011
   4.8866666666666657E-005    -2.6880297419290038E-011
   4.9066666666666662E-005    -4.2049444798426175E-011
   4.9266666666666667E-005    -5.5805831349624407E-011
   4.9466666666666658E-005    -6.6912718888051603E-011
   4.9666666666666663E-005    -7.4246788874723474E-011
   4.9866666666666655E-005    -7.6896031519474262E-011
   5.0066666666666659E-005    -7.4240381588220309E-011
   5.0266666666666664E-005    -6.6007018776032944E-011
   5.0466666666666656E-005    -5.2294920797892116E-011
   5.0666666666666660E-005    -3.3567248351793977E-011
   5.0866666666666665E-005    -1.0614331378794458E-011
   5.1066666666666657E-005     1.5506447519706338E-011
   5.1266666666666661E-005     4.3543899973844706E-011
   5.1466666666666666E-005     7.2128337542261459E-011
   5.1666666666666658E-005     9.9837646241133694E-011
   5.1866666666666662E-005     1.2524500569658801E-010
   5.2066666666666667E-005     1.4694274889814097E-010
   5.2266666666666659E-005     1.6354259764232705E-010
   5.2466666666666664E-005     1.7365846626274894E-010
   5.2666666666666655E-005     1.7588425068191950E-010
   5.2866666666666660E-005     1.6878385134854443E-010
   5.3066666666666665E-005     1.5091361135490354E-010
   5.3266666666666656E-005     1.2089695473942632E-010
   5.3466666666666661E-005     7.7566575790823043E-011
   5.3666666666666666E-005     2.0181576690128812E-011
   5.3866666666666657E-005    -5.1284461956450123E-011
   5.4066666666666662E-005    -1.3580552451252048E-010
   5.4266666666666667E-005    -2.3094877613589474E-010
   5.4466666666666658E-005    -3.3255526852884290E-010
   5.4666666666666663E-005    -4.3451800796444240E-010
   5.4866666666666668E-005    -5.2872535312433868E-010
   5.5066666666666659E-005    -6.0523491013006437E-010
   5.5266666666666664E-005    -6.5273256670944518E-010
   5.5466666666666655E-005    -6.5930564228784435E-010
   5.5666666666666660E-005    -6.1352975129176502E-010
   5.5866666666666665E-005    -5.0582129778670189E-010
   5.6066666666666656E-005    -3.2997069527598048E-010
   5.6266666666666661E-005    -8.4715580136912984E-011
   5.6466666666666666E-005     2.2481648335660684E-010
   5.6666666666666657E-005     5.8599938712409713E-010
   5.6866666666666662E-005     9.7814371756405062E-010
   5.7066666666666667E-005     1.3726667557603199E-009
   5.7266666666666658E-005     1.7341478107193827E-009
   5.7466666666666663E-005     2.0223496571337326E-009
   5.7666666666666654E-005     2.1951918326598007E-009
   5.7866666666666659E-005     2.2125555032534125E-009
   5.8066666666666664E-005     2.0406704145579394E-009
   5.8266666666666655E-005     1.6567434462306073E-009
   5.8466666666666660E-005     1.0533722559537832E-009
   5.8666666666666665E-005     2.4224671562383880E-010
   5.8866666666666656E-005    -7.4337564254377166E-010
   5.9066666666666661E-005    -1.8478997140348670E-009
   5.9266666666666666E-005    -2.9946927166048292E-009
   5.9466666666666657E-005    -4.0896721484421942E-009
   5.9666666666666662E-005    -5.0271897307546639E-009
   5.9866666666666667E-005    -5.6979891092966968E-009
   6.0066666666666659E-005    -5.9987627169506878E-009
   6.0266666666666663E-005    -5.8426101431614179E-009
   6.0466666666666655E-005    -5.1695155867873841E-009
   6.0666666666666660E-005    -3.9558341174167916E-009
   6.0866666666666664E-005    -2.2217435858798451E-009
   6.1066666666666656E-005    -3.5705921810138252E-011
   6.1266666666666661E-005     2.4848752362855667E-009
   6.1466666666666665E-005     5.1773338402746394E-009
   6.1666666666666657E-005     7.8419187088587559E-009
   6.1866666666666662E-005     1.0254272135354868E-008
   6.2066666666666666E-005     1.2181557616000615E-008
   6.2266666666666658E-005     1.3401204351598910E-008
   6.2466666666666663E-005     1.3720893883489356E-008
   6.2666666666666668E-005     1.2998180735717288E-008
   6.2866666666666659E-005     1.1158020324043501E-008
   6.3066666666666664E-005     8.2065123339756102E-009
   6.3266666666666655E-005     4.2393518170473442E-009
   6.3466666666666660E-005    -5.5620533346835524E-010
   6.3666666666666665E-005    -5.9065782050689272E-009
   6.3866666666666656E-005    -1.1464513666473158E-008
   6.4066666666666661E-005    -1.6828756159794767E-008
   6.4266666666666666E-005    -2.1569742112029697E-008
   6.4466666666666657E-005    -2.5259818094234941E-008
   6.4666666666666662E-005    -2.7505969871356416E-008
   6.4866666666666667E-005    -2.7982786371553118E-008
   6.5066666666666658E-005    -2.6463158739618440E-008
   6.5266666666666663E-005    -2.2844302859183055E-008
   6.5466666666666654E-005    -1.7166753573846427E-008
   6.5666666666666659E-005    -9.6245359152231088E-009
   6.5866666666666664E-005    -5.6506485979709285E-010
   6.6066666666666655E-005     9.5219447382589510E-009
   6.6266666666666660E-005     2.0026541409237894E-008
   6.6466666666666665E-005     3.0250838911849277E-008
   6.6666666666666656E-005     3.9450033102529970E-008
   6.6866666666666661E-005     4.6879950965802442E-008
   6.7066666666666666E-005     5.1848368099127465E-008
   6.7266666666666657E-005     5.3766845038192108E-008
   6.7466666666666662E-005     5.2199782850592730E-008
   6.7666666666666667E-005     4.6907107124167859E-008
   6.7866666666666658E-005     3.7877436011496529E-008
   6.8066666666666663E-005     2.5348840568375862E-008
   6.8266666666666655E-005     9.8150340918722737E-009
   6.8466666666666659E-005    -7.9844801813346808E-009
   6.8666666666666664E-005    -2.7090868401816759E-008
   6.8866666666666656E-005    -4.6368478771680693E-008
   6.9066666666666660E-005    -6.4562030475889588E-008
   6.9266666666666665E-005    -8.0366041562985500E-008
   6.9466666666666657E-005    -9.2503274493116833E-008
   6.9666666666666661E-005    -9.9808146880400079E-008
   6.9866666666666666E-005    -1.0131068785352802E-007
   7.0066666666666658E-005    -9.6316150978310112E-008
   7.0266666666666662E-005    -8.4475360474859021E-008
   7.0466666666666654E-005    -6.5840965280460635E-008
   7.0666666666666659E-005    -4.0905144582210049E-008
   7.0866666666666664E-005    -1.0614942963981162E-008
   7.1066666666666655E-005     2.3638241170134221E-008
   7.1266666666666660E-005     6.0056690452623921E-008
   7.1466666666666665E-005     9.6503426560031779E-008
   7.1666666666666656E-005     1.3059758868733013E-007
   7.1866666666666661E-005     1.5983651709170992E-007
   7.2066666666666666E-005     1.8174062339362367E-007
   7.2266666666666657E-005     1.9401584971000040E-007
   7.2466666666666662E-005     1.9472611507535993E-007
   7.2666666666666667E-005     1.8246642150271734E-007
   7.2866666666666658E-005     1.5652582779524926E-007
   7.3066666666666663E-005     1.1702761733461104E-007
   7.3266666666666654E-005     6.5033767274903776E-008
   7.3466666666666659E-005     2.6003810232555633E-009
   7.3666666666666664E-005    -6.7227992150607880E-008
   7.3866666666666655E-005    -1.4049474700940542E-007
   7.4066666666666660E-005    -2.1248521476197853E-007
   7.4266666666666665E-005    -2.7795944983977117E-007
   7.4466666666666656E-005    -3.3145961836943191E-007
   7.4666666666666661E-005    -3.6768068286150726E-007
   7.4866666666666666E-005    -3.8188606929897433E-007
   7.5066666666666657E-005    -3.7034287755002474E-007
   7.5266666666666662E-005    -3.3074493991887302E-007
   7.5466666666666653E-005    -2.6258750686654306E-007