  -3.3333333333333335E-005     0.0000000000000000     
  -3.3133333333333337E-005     0.0000000000000000     
  -3.2933333333333332E-005     0.0000000000000000     
  -3.2733333333333334E-005     0.0000000000000000     
  -3.2533333333333336E-005     0.0000000000000000     
  -3.2333333333333338E-005     0.0000000000000000     
  -3.2133333333333333E-005     0.0000000000000000     
  -3.1933333333333335E-005     0.0000000000000000     
  -3.1733333333333337E-005     0.0000000000000000     
  -3.1533333333333332E-005     0.0000000000000000     
  -3.1333333333333334E-005     0.0000000000000000     
  -3.1133333333333336E-005     0.0000000000000000     
  -3.0933333333333338E-005     0.0000000000000000     
  -3.0733333333333333E-005     0.0000000000000000     
  -3.0533333333333335E-005     0.0000000000000000     
  -3.0333333333333337E-005     0.0000000000000000     
  -3.0133333333333335E-005     0.0000000000000000     
  -2.9933333333333334E-005     0.0000000000000000     
  -2.9733333333333336E-005     0.0000000000000000     
  -2.9533333333333334E-005     0.0000000000000000     
  -2.9333333333333336E-005     0.0000000000000000     
  -2.9133333333333334E-005     0.0000000000000000     
  -2.8933333333333336E-005     0.0000000000000000     
  -2.8733333333333335E-005     0.0000000000000000     
  -2.8533333333333333E-005     0.0000000000000000     
  -2.8333333333333335E-005     0.0000000000000000     
  -2.8133333333333337E-005     0.0000000000000000     
  -2.7933333333333336E-005     0.0000000000000000     
  -2.7733333333333334E-005     0.0000000000000000     
  -2.7533333333333336E-005     0.0000000000000000     
  -2.7333333333333335E-005     0.0000000000000000     
  -2.7133333333333333E-005     0.0000000000000000     
  -2.6933333333333335E-005     0.0000000000000000     
  -2.6733333333333337E-005     0.0000000000000000     
  -2.6533333333333336E-005     0.0000000000000000     
  -2.6333333333333334E-005     0.0000000000000000     
  -2.6133333333333336E-005     0.0000000000000000     
  -2.5933333333333335E-005     0.0000000000000000     
  -2.5733333333333333E-005     0.0000000000000000     
  -2.5533333333333335E-005     0.0000000000000000     
  -2.5333333333333337E-005     0.0000000000000000     
  -2.5133333333333336E-005     0.0000000000000000     
  -2.4933333333333334E-005     0.0000000000000000     
  -2.4733333333333336E-005     0.0000000000000000     
  -2.4533333333333334E-005     0.0000000000000000     
  -2.4333333333333333E-005     0.0000000000000000     
  -2.4133333333333335E-005     0.0000000000000000     
  -2.3933333333333337E-005     0.0000000000000000     
  -2.3733333333333335E-005     0.0000000000000000     
  -2.3533333333333334E-005     0.0000000000000000     
  -2.3333333333333336E-005     0.0000000000000000     
  -2.3133333333333338E-005     0.0000000000000000     
  -2.2933333333333336E-005     0.0000000000000000     
  -2.2733333333333335E-005     0.0000000000000000     
  -2.2533333333333337E-005     0.0000000000000000     
  -2.2333333333333335E-005     0.0000000000000000     
  -2.2133333333333334E-005     0.0000000000000000     
  -2.1933333333333336E-005     0.0000000000000000     
  -2.1733333333333338E-005     0.0000000000000000     
  -2.1533333333333336E-005     0.0000000000000000     
  -2.1333333333333335E-005     0.0000000000000000     
  -2.1133333333333337E-005     0.0000000000000000     
  -2.0933333333333335E-005     0.0000000000000000     
  -2.0733333333333334E-005     0.0000000000000000     
  -2.0533333333333336E-005     0.0000000000000000     
  -2.0333333333333337E-005     0.0000000000000000     
  -2.0133333333333336E-005     0.0000000000000000     
  -1.9933333333333334E-005     0.0000000000000000     
  -1.9733333333333336E-005     0.0000000000000000     
  -1.9533333333333335E-005     0.0000000000000000     
  -1.9333333333333333E-005     0.0000000000000000     
  -1.9133333333333335E-005     0.0000000000000000     
  -1.8933333333333337E-005     0.0000000000000000     
  -1.8733333333333336E-005     0.0000000000000000     
  -1.8533333333333334E-005     0.0000000000000000     
  -1.8333333333333336E-005     0.0000000000000000     
  -1.8133333333333335E-005     0.0000000000000000     
  -1.7933333333333337E-005     0.0000000000000000     
  -1.7733333333333335E-005     0.0000000000000000     
  -1.7533333333333337E-005     0.0000000000000000     
  -1.7333333333333336E-005     0.0000000000000000     
  -1.7133333333333334E-005     0.0000000000000000     
  -1.6933333333333336E-005     0.0000000000000000     
  -1.6733333333333335E-005     0.0000000000000000     
  -1.6533333333333337E-005     0.0000000000000000     
  -1.6333333333333335E-005     0.0000000000000000     
  -1.6133333333333337E-005     0.0000000000000000     
  -1.5933333333333336E-005     0.0000000000000000     
  -1.5733333333333334E-005     0.0000000000000000     
  -1.5533333333333336E-005     0.0000000000000000     
  -1.5333333333333334E-005     0.0000000000000000     
  -1.5133333333333336E-005     0.0000000000000000     
  -1.4933333333333335E-005     0.0000000000000000     
  -1.4733333333333337E-005     0.0000000000000000     
  -1.4533333333333335E-005     0.0000000000000000     
  -1.4333333333333337E-005     0.0000000000000000     
  -1.4133333333333336E-005     0.0000000000000000     
  -1.3933333333333334E-005     0.0000000000000000     
  -1.3733333333333336E-005     0.0000000000000000     
  -1.3533333333333335E-005     0.0000000000000000     
  -1.3333333333333337E-005     0.0000000000000000     
  -1.3133333333333335E-005     0.0000000000000000     
  -1.2933333333333337E-005     0.0000000000000000     
  -1.2733333333333336E-005     0.0000000000000000     
  -1.2533333333333338E-005     0.0000000000000000     
  -1.2333333333333336E-005     0.0000000000000000     
  -1.2133333333333335E-005     0.0000000000000000     
  -1.1933333333333337E-005     0.0000000000000000     
  -1.1733333333333335E-005     0.0000000000000000     
  -1.1533333333333337E-005     0.0000000000000000     
  -1.1333333333333336E-005     0.0000000000000000     
  -1.1133333333333337E-005     0.0000000000000000     
  -1.0933333333333336E-005     0.0000000000000000     
  -1.0733333333333334E-005     0.0000000000000000     
  -1.0533333333333336E-005     0.0000000000000000     
  -1.0333333333333335E-005     0.0000000000000000     
  -1.0133333333333337E-005     0.0000000000000000     
  -9.9333333333333354E-006     0.0000000000000000     
  -9.7333333333333373E-006     0.0000000000000000     
  -9.5333333333333358E-006     0.0000000000000000     
  -9.3333333333333343E-006     0.0000000000000000     
  -9.1333333333333362E-006     0.0000000000000000     
  -8.9333333333333348E-006     0.0000000000000000     
  -8.7333333333333367E-006     0.0000000000000000     
  -8.5333333333333352E-006     0.0000000000000000     
  -8.3333333333333371E-006     0.0000000000000000     
  -8.1333333333333356E-006     0.0000000000000000     
  -7.9333333333333376E-006     0.0000000000000000     
  -7.7333333333333361E-006     0.0000000000000000     
  -7.5333333333333346E-006     0.0000000000000000     
  -7.3333333333333365E-006     0.0000000000000000     
  -7.1333333333333351E-006     0.0000000000000000     
  -6.9333333333333370E-006     0.0000000000000000     
  -6.7333333333333355E-006     0.0000000000000000     
  -6.5333333333333374E-006     0.0000000000000000     
  -6.3333333333333359E-006     0.0000000000000000     
  -6.1333333333333379E-006     0.0000000000000000     
  -5.9333333333333364E-006     0.0000000000000000     
  -5.7333333333333349E-006     0.0000000000000000     
  -5.5333333333333368E-006     0.0000000000000000     
  -5.3333333333333354E-006     0.0000000000000000     
  -5.1333333333333373E-006     0.0000000000000000     
  -4.9333333333333358E-006     0.0000000000000000     
  -4.7333333333333377E-006     0.0000000000000000     
  -4.5333333333333362E-006     0.0000000000000000     
  -4.3333333333333348E-006     0.0000000000000000     
  -4.1333333333333367E-006     0.0000000000000000     
  -3.9333333333333352E-006     0.0000000000000000     
  -3.7333333333333371E-006     0.0000000000000000     
  -3.5333333333333356E-006     0.0000000000000000     
  -3.3333333333333376E-006     0.0000000000000000     
  -3.1333333333333361E-006     0.0000000000000000     
  -2.9333333333333346E-006     0.0000000000000000     
  -2.7333333333333365E-006     0.0000000000000000     
  -2.5333333333333384E-006     0.0000000000000000     
  -2.3333333333333336E-006     0.0000000000000000     
  -2.1333333333333355E-006     0.0000000000000000     
  -1.9333333333333374E-006     0.0000000000000000     
  -1.7333333333333393E-006     0.0000000000000000     
  -1.5333333333333345E-006     0.0000000000000000     
  -1.3333333333333364E-006     0.0000000000000000     
  -1.1333333333333383E-006     0.0000000000000000     
  -9.3333333333333343E-007     0.0000000000000000     
  -7.3333333333333535E-007     0.0000000000000000     
  -5.3333333333333726E-007     0.0000000000000000     
  -3.3333333333333918E-007     0.0000000000000000     
  -1.3333333333333432E-007     0.0000000000000000     
   6.6666666666663770E-008     0.0000000000000000     
   2.6666666666666185E-007     0.0000000000000000     
   4.6666666666666672E-007     0.0000000000000000     
   6.6666666666666480E-007     0.0000000000000000     
   8.6666666666666289E-007     0.0000000000000000     
   1.0666666666666610E-006     0.0000000000000000     
   1.2666666666666658E-006     0.0000000000000000     
   1.4666666666666639E-006     0.0000000000000000     
   1.6666666666666620E-006     0.0000000000000000     
   1.8666666666666669E-006     0.0000000000000000     
   2.0666666666666649E-006     0.0000000000000000     
   2.2666666666666630E-006     0.0000000000000000     
   2.4666666666666611E-006     0.0000000000000000     
   2.6666666666666660E-006     0.0000000000000000     
   2.8666666666666641E-006     0.0000000000000000     
   3.0666666666666622E-006     0.0000000000000000     
   3.2666666666666602E-006     0.0000000000000000     
   3.4666666666666651E-006     0.0000000000000000     
   3.6666666666666632E-006     0.0000000000000000     
   3.8666666666666613E-006     0.0000000000000000     
   4.0666666666666661E-006     0.0000000000000000     
   4.2666666666666642E-006     0.0000000000000000     
   4.4666666666666623E-006     0.0000000000000000     
   4.6666666666666604E-006     0.0000000000000000     
   4.8666666666666652E-006     0.0000000000000000     
   5.0666666666666633E-006     0.0000000000000000     
   5.2666666666666614E-006     0.0000000000000000     
   5.4666666666666663E-006     0.0000000000000000     
   5.6666666666666644E-006     0.0000000000000000     
   5.8666666666666624E-006     0.0000000000000000     
   6.0666666666666605E-006     0.0000000000000000     
   6.2666666666666654E-006     0.0000000000000000     
   6.4666666666666635E-006     0.0000000000000000     
   6.6666666666666616E-006     0.0000000000000000     
   6.8666666666666664E-006     0.0000000000000000     
   7.0666666666666645E-006     0.0000000000000000     
   7.2666666666666626E-006     0.0000000000000000     
   7.4666666666666607E-006     0.0000000000000000     
   7.6666666666666655E-006     0.0000000000000000     
   7.8666666666666636E-006     0.0000000000000000     
   8.0666666666666617E-006     0.0000000000000000     
   8.2666666666666598E-006     0.0000000000000000     
   8.4666666666666647E-006     0.0000000000000000     
   8.6666666666666627E-006     0.0000000000000000     
   8.8666666666666608E-006     0.0000000000000000     
   9.0666666666666657E-006     0.0000000000000000     
   9.2666666666666638E-006     0.0000000000000000     
   9.4666666666666619E-006     0.0000000000000000     
   9.6666666666666599E-006     0.0000000000000000     
   9.8666666666666648E-006    -1.4832910607031873E-035
   1.0066666666666663E-005    -3.4373142295285590E-035
   1.0266666666666661E-005    -6.1282544051041270E-035
   1.0466666666666666E-005    -8.7831480004939814E-035
   1.0666666666666664E-005    -9.0225287006668053E-035
   1.0866666666666662E-005    -5.4181823488105389E-035
   1.1066666666666660E-005     3.1677153463308736E-035
   1.1266666666666665E-005     1.8670811844773441E-034
   1.1466666666666663E-005     4.0158069124031216E-034
   1.1666666666666661E-005     6.4864017050663835E-034
   1.1866666666666666E-005     9.1088239909303253E-034
   1.2066666666666664E-005     1.0797487747443775E-033
   1.2266666666666662E-005     1.0499541255483596E-033
   1.2466666666666660E-005     6.7742678737907804E-034
   1.2666666666666665E-005    -1.9004084008274493E-034
   1.2866666666666663E-005    -1.6439237068371842E-033
   1.3066666666666661E-005    -3.6825189072789822E-033
   1.3266666666666666E-005    -6.1161617595176571E-033
   1.3466666666666664E-005    -8.4993112519167607E-033
   1.3666666666666662E-005    -1.0092263319650383E-032
   1.3866666666666660E-005    -9.8840781273319708E-033
   1.4066666666666665E-005    -6.7170377374595473E-033
   1.4266666666666663E-005     4.7057146488052995E-034
   1.4466666666666661E-005     1.2271035486743769E-032
   1.4666666666666666E-005     2.8334274523957779E-032
   1.4866666666666664E-005     4.6878923361040097E-032
   1.5066666666666662E-005     6.4314587317669652E-032
   1.5266666666666661E-005     7.5151898793338371E-032
   1.5466666666666665E-005     7.2394571081973301E-032
   1.5666666666666663E-005     4.8582802422557003E-032
   1.5866666666666662E-005    -2.4305156699235030E-033
   1.6066666666666660E-005    -8.3051796823096046E-032
   1.6266666666666665E-005    -1.8917381051059978E-031
   1.6466666666666663E-005    -3.0761441137007392E-031
   1.6666666666666661E-005    -4.1457997743614300E-031
   1.6866666666666666E-005    -4.7610831400394560E-031
   1.7066666666666664E-005    -4.5141428099825551E-031
   1.7266666666666662E-005    -2.9977273557551248E-031
   1.7466666666666660E-005     9.0351280256444528E-033
   1.7666666666666665E-005     4.8159956533415086E-031
   1.7866666666666663E-005     1.0870936021376250E-030
   1.8066666666666661E-005     1.7459788744740916E-030
   1.8266666666666666E-005     2.3252579766610077E-030
   1.8466666666666664E-005     2.6446031163556776E-030
   1.8666666666666662E-005     2.4970338125026012E-030
   1.8866666666666660E-005     1.6859282283448207E-030
   1.9066666666666665E-005     7.6998359442138266E-032
   1.9266666666666663E-005    -2.3403769028826398E-030
   1.9466666666666661E-005    -5.3928073458662747E-030
   1.9666666666666666E-005    -8.6782230261320406E-030
   1.9866666666666664E-005    -1.1554294709938644E-029
   2.0066666666666662E-005    -1.3177153998819475E-029
   2.0266666666666660E-005    -1.2603396146578597E-029
   2.0466666666666665E-005    -8.9592936936057446E-030
   2.0666666666666663E-005    -1.6675912687883775E-030
   2.0866666666666661E-005     9.2947763959066951E-030
   2.1066666666666659E-005     2.3152506641140394E-029
   2.1266666666666664E-005     3.8160929622947703E-029
   2.1466666666666662E-005     5.1575820113175784E-029
   2.1666666666666660E-005     5.9828050757417288E-029
   2.1866666666666665E-005     5.8948195680855056E-029
   2.2066666666666663E-005     4.5250244646316199E-029
   2.2266666666666661E-005     1.6231630742369021E-029
   2.2466666666666659E-005    -2.8415892623218423E-029
   2.2666666666666664E-005    -8.5854640710159983E-029
   2.2866666666666662E-005    -1.4943218216127648E-028
   2.3066666666666660E-005    -2.0854549624220736E-028
   2.3266666666666665E-005    -2.4927342566565590E-028
   2.3466666666666663E-005    -2.5594231920996128E-028
   2.3666666666666661E-005    -2.1365903283754991E-028
   2.3866666666666660E-005    -1.1165777464110515E-028
   2.4066666666666664E-005     5.2918656711306555E-029
   2.4266666666666662E-005     2.7141627557051344E-028
   2.4466666666666661E-005     5.2105129458322804E-028
   2.4666666666666665E-005     7.6417967964945189E-028
   2.4866666666666663E-005     9.5030670133763560E-028
   2.5066666666666662E-005     1.0214372645666838E-027
   2.5266666666666660E-005     9.2090439554515064E-028
   2.5466666666666665E-005     6.0514302930026209E-028
   2.5666666666666663E-005     5.7079128818075853E-029
   2.5866666666666661E-005    -7.0100965895603665E-028
   2.6066666666666666E-005    -1.5979623711925613E-027
   2.6266666666666664E-005    -2.5106376532713341E-027
   2.6466666666666662E-005    -3.2701192675626964E-027
   2.6666666666666660E-005    -3.6791663728931348E-027
   2.6866666666666665E-005    -3.5412000702110219E-027
   2.7066666666666663E-005    -2.6988277792641941E-027
   2.7266666666666661E-005    -1.0772802773796723E-027
   2.7466666666666666E-005     1.2744137479587860E-027
   2.7666666666666664E-005     4.1535452589830659E-027
   2.7866666666666662E-005     7.1947257673825517E-027
   2.8066666666666667E-005     9.8900585615766662E-027
   2.8266666666666658E-005     1.1643307316034209E-026
   2.8466666666666663E-005     1.1857314340338586E-026
   2.8666666666666668E-005     1.0046836192397587E-026
   2.8866666666666659E-005     5.9614006755257980E-027
   2.9066666666666664E-005    -3.0365658358079881E-028
   2.9266666666666669E-005    -8.2334783940037406E-027
   2.9466666666666660E-005    -1.6881950009448221E-026
   2.9666666666666665E-005    -2.4940230408270943E-026
   2.9866666666666656E-005    -3.0891756070599890E-026
   3.0066666666666661E-005    -3.3243301125257150E-026
   3.0266666666666666E-005    -3.0802975322395505E-026
   3.0466666666666657E-005    -2.2959129504324813E-026
   3.0666666666666662E-005    -9.9032157445847420E-027
   3.0866666666666667E-005     7.2610848391743805E-027
   3.1066666666666658E-005     2.6567741359635266E-026
   3.1266666666666663E-005     4.5416663650957592E-026
   3.1466666666666668E-005     6.0963257037141301E-026
   3.1666666666666659E-005     7.0610742411106461E-026
   3.1866666666666664E-005     7.2510023648039200E-026
   3.2066666666666656E-005     6.5950010434616817E-026
   3.2266666666666660E-005     5.1524043268106131E-026
   3.2466666666666665E-005     3.0991469937912573E-026
   3.2666666666666657E-005     6.8175431729820001E-027
   3.2866666666666661E-005    -1.8538849111019937E-026
   3.3066666666666666E-005    -4.3427815886403158E-026
   3.3266666666666658E-005    -6.7665000205543119E-026
   3.3466666666666662E-005    -9.2774572241220187E-026
   3.3666666666666667E-005    -1.2158644106842248E-025
   3.3866666666666659E-005    -1.5706987297142607E-025
   3.4066666666666664E-005    -2.0047499678085248E-025
   3.4266666666666668E-005    -2.4909145898968533E-025
   3.4466666666666660E-005    -2.9417453924832341E-025
   3.4666666666666665E-005    -3.1976824384970077E-025
   3.4866666666666656E-005    -3.0320290439715816E-025
   3.5066666666666661E-005    -2.1790505104503375E-025
   3.5266666666666666E-005    -3.8794083906989867E-026
   3.5466666666666657E-005     2.5002825596653857E-025
   3.5666666666666662E-005     6.4629727217617848E-025
   3.5866666666666667E-005     1.1210339621534097E-024
   3.6066666666666658E-005     1.6127044389297283E-024
   3.6266666666666663E-005     2.0265848488041372E-024
   3.6466666666666668E-005     2.2415330766130795E-024
   3.6666666666666659E-005     2.1254547582077496E-024
   3.6866666666666664E-005     1.5592538863975077E-024
   3.7066666666666669E-005     4.6709302223609222E-025
   3.7266666666666660E-005    -1.1513145852155445E-024
   3.7466666666666665E-005    -3.1925114059594773E-024
   3.7666666666666656E-005    -5.4324389534152058E-024
   3.7866666666666661E-005    -7.5280798970014851E-024
   3.8066666666666666E-005    -9.0431748290389178E-024
   3.8266666666666657E-005    -9.5003930876786797E-024
   3.8466666666666662E-005    -8.4578100606505287E-024
   3.8666666666666667E-005    -5.6021178065323615E-024
   3.8866666666666658E-005    -8.4571874521810830E-025
   3.9066666666666663E-005     5.5893895358266205E-024
   3.9266666666666668E-005     1.3120059263179946E-023
   3.9466666666666659E-005     2.0800797944837991E-023
   3.9666666666666664E-005     2.7386293978600762E-023
   3.9866666666666655E-005     3.1462821058751725E-023
   4.0066666666666660E-005     3.1642668723367632E-023
   4.0266666666666665E-005     2.6803474075492615E-023
   4.0466666666666656E-005     1.6342413277183934E-023
   4.0666666666666661E-005     4.0626035865661992E-025
   4.0866666666666666E-005    -1.9946157084174220E-023
   4.1066666666666657E-005    -4.2690328068520468E-023
   4.1266666666666662E-005    -6.4923542800502393E-023
   4.1466666666666667E-005    -8.3109714917526895E-023
   4.1666666666666658E-005    -9.3476426373849333E-023
   4.1866666666666663E-005    -9.2534804132054083E-023
   4.2066666666666668E-005    -7.7669016984864478E-023
   4.2266666666666660E-005    -4.7721465196410240E-023
   4.2466666666666664E-005    -3.4873359419417996E-024
   4.2666666666666656E-005     5.1971484877724650E-023
   4.2866666666666661E-005     1.1327393839765276E-022
   4.3066666666666665E-005     1.7298844962525080E-022
   4.3266666666666657E-005     2.2224943052074140E-022
   4.3466666666666662E-005     2.5170617829751609E-022
   4.3666666666666666E-005     2.5273972492287493E-022
   4.3866666666666658E-005     2.1883481138261242E-022
   4.4066666666666663E-005     1.4694823949632658E-022
   4.4266666666666667E-005     3.8682558104868568E-023
   4.4466666666666659E-005    -9.8941313937309447E-023
   4.4666666666666664E-005    -2.5330873976014171E-022
   4.4866666666666655E-005    -4.0678936601864797E-022
   4.5066666666666660E-005    -5.3815177137704817E-022
   4.5266666666666665E-005    -6.2479601229029764E-022
   4.5466666666666656E-005    -6.4565773554056766E-022
   4.5666666666666661E-005    -5.8450458183556168E-022
   4.5866666666666666E-005    -4.3321772095648989E-022
   4.6066666666666657E-005    -1.9456379538304547E-022
   4.6266666666666662E-005     1.1607381400956111E-022
   4.6466666666666667E-005     4.7048467132238297E-022
   4.6666666666666658E-005     8.2928324872069100E-022
   4.6866666666666663E-005     1.1455363991769932E-021
   4.7066666666666668E-005     1.3701753083123107E-021
   4.7266666666666659E-005     1.4586694974680632E-021
   4.7466666666666664E-005     1.3781285408498766E-021
   4.7666666666666655E-005     1.1137658781889946E-021
   4.7866666666666660E-005     6.7357901920787121E-022
   4.8066666666666665E-005     9.0205354676921611E-023
   4.8266666666666656E-005    -5.8076959681749159E-022
   4.8466666666666661E-005    -1.2662689227702020E-021
   4.8666666666666666E-005    -1.8845284714651618E-021
   4.8866666666666657E-005    -2.3561672273592214E-021
   4.9066666666666662E-005    -2.6158732630292454E-021
   4.9266666666666667E-005    -2.6227116394702295E-021
   4.9466666666666658E-005    -2.3670500242415139E-021
   4.9666666666666663E-005    -1.8724759894979310E-021
   4.9866666666666655E-005    -1.1918560900992619E-021
   5.0066666666666659E-005    -3.9773872067683661E-022
   5.0266666666666664E-005     4.3148560960056525E-022
   5.0466666666666656E-005     1.2271575777425787E-021
   5.0666666666666660E-005     1.9443673955238440E-021
   5.0866666666666665E-005     2.5709132906285391E-021
   5.1066666666666657E-005     3.1281702886316305E-021
   5.1266666666666661E-005     3.6620626655043666E-021
   5.1466666666666666E-005     4.2241920723548864E-021
   5.1666666666666658E-005     4.8454075396596945E-021
   5.1866666666666662E-005     5.5063539296579737E-021
   5.2066666666666667E-005     6.1114026204107017E-021
   5.2266666666666659E-005     6.4732905033316000E-021
   5.2466666666666664E-005     6.3155886003277220E-021
   5.2666666666666655E-005     5.2983503173435651E-021
   5.2866666666666660E-005     3.0691644016888616E-021
   5.3066666666666665E-005    -6.6251184344392321E-022
   5.3266666666666656E-005    -6.0349930230164662E-021
   5.3466666666666661E-005    -1.2940248712891908E-020
   5.3666666666666666E-005    -2.0942484431609396E-020
   5.3866666666666657E-005    -2.9228368783424413E-020
   5.4066666666666662E-005    -3.6607743963238006E-020
   5.4266666666666667E-005    -4.1580385452040281E-020
   5.4466666666666658E-005    -4.2477708395598391E-020
   5.4666666666666663E-005    -3.7678810378349198E-020
   5.4866666666666668E-005    -2.5887593084475872E-020
   5.5066666666666659E-005    -6.4445661718845560E-021
   5.5266666666666664E-005     2.0365926619962864E-020
   5.5466666666666655E-005     5.3062644324776515E-020
   5.5666666666666660E-005     8.8823332722540347E-020
   5.5866666666666665E-005     1.2350282174268921E-019
   5.6066666666666656E-005     1.5185610452386641E-019
   5.6266666666666661E-005     1.6798966783564794E-019
   5.6466666666666666E-005     1.6603687535516924E-019
   5.6666666666666657E-005     1.4101663930409204E-019
   5.6866666666666662E-005     8.9798378331935764E-020
   5.7066666666666667E-005     1.2058996822348195E-020
   5.7266666666666658E-005    -8.8910193149206950E-020
   5.7466666666666663E-005    -2.0570274481710701E-019
   5.7666666666666654E-005    -3.2675291142009113E-019
   5.7866666666666659E-005    -4.3686985705074683E-019
   5.8066666666666664E-005    -5.1841569998048539E-019
   5.8266666666666655E-005    -5.5311975238741796E-019
   5.8466666666666660E-005    -5.2442521882947142E-019
   5.8666666666666665E-005    -4.2016714177874053E-019
   5.8866666666666656E-005    -2.3528669140400412E-019
   5.9066666666666661E-005     2.5782731785963437E-020
   5.9266666666666666E-005     3.4745995633867836E-019
   5.9466666666666657E-005     7.0247951629547883E-019
   5.9666666666666662E-005     1.0527970197590099E-018
   5.9866666666666667E-005     1.3521321767460242E-018
   6.0066666666666659E-005     1.5501680041852274E-018
   6.0266666666666663E-005     1.5982116881380730E-018
   6.0466666666666655E-005     1.4558877157252350E-018
   6.0666666666666660E-005     1.0982022043529644E-018
   6.0866666666666664E-005     5.2215000685585604E-019
   6.1066666666666656E-005    -2.4810248497762374E-019
   6.1266666666666661E-005    -1.1584207461516717E-018
   6.1466666666666665E-005    -2.1251614104982680E-018
   6.1666666666666657E-005    -3.0395161062664216E-018
   6.1866666666666662E-005    -3.7759914015693344E-018
   6.2066666666666666E-005    -4.2048200290903002E-018
   6.2266666666666658E-005    -4.2075187058387544E-018
   6.2466666666666663E-005    -3.6942638890975639E-018
   6.2666666666666668E-005    -2.6212230714123906E-018
   6.2866666666666659E-005    -1.0056069861983191E-018
   6.3066666666666664E-005     1.0639821560019519E-018
   6.3266666666666655E-005     3.4242132005416113E-018
   6.3466666666666660E-005     5.8425702267253719E-018
   6.3666666666666665E-005     8.0328998210127113E-018
   6.3866666666666656E-005     9.6809256698072230E-018
   6.4066666666666661E-005     1.0478488253347177E-017
   6.4266666666666666E-005     1.0163708807143185E-017
   6.4466666666666657E-005     8.5630721356418363E-018
   6.4666666666666662E-005     5.6302664642978181E-018
   6.4866666666666667E-005     1.4760570673962686E-018
   6.5066666666666658E-005    -3.6164158536986671E-018
   6.5266666666666663E-005    -9.1957197204570931E-018
   6.5466666666666654E-005    -1.4668655191476407E-017
   6.5666666666666659E-005    -1.9350009421965137E-017
   6.5866666666666664E-005    -2.2533059976073291E-017
   6.6066666666666655E-005    -2.3575484564541192E-017
   6.6266666666666660E-005    -2.1991997828679906E-017
   6.6466666666666665E-005    -1.7542639635871473E-017
   6.6666666666666656E-005    -1.0304359289779252E-017
   6.6866666666666661E-005    -7.1338558247926080E-019
   6.7066666666666666E-005     1.0432193436004422E-017
   6.7266666666666657E-005     2.2016809938334046E-017
   6.7466666666666662E-005     3.2700716089099579E-017
   6.7666666666666667E-005     4.1057847549175926E-017
   6.7866666666666658E-005     4.5746853200330772E-017
   6.8066666666666663E-005     4.5697937047626836E-017
   6.8266666666666655E-005     4.0292179395694792E-017
   6.8466666666666659E-005     2.9507610327465230E-017
   6.8666666666666664E-005     1.4006599681523664E-017
   6.8866666666666656E-005    -4.8572438479904748E-018
   6.9066666666666660E-005    -2.5126641773341457E-017
   6.9266666666666665E-005    -4.4425395775830358E-017
   6.9466666666666657E-005    -6.0229501941823604E-017
   6.9666666666666661E-005    -7.0199324576468035E-017
   6.9866666666666666E-005    -7.2534448828260331E-017
   7.0066666666666658E-005    -6.6301967167473389E-017
   7.0266666666666662E-005    -5.1684861871771287E-017
   7.0466666666666654E-005    -3.0099676431428636E-017
   7.0666666666666659E-005    -4.1427856190518858E-018
   7.0866666666666664E-005     2.2656268528313065E-017
   7.1066666666666655E-005     4.6269121804206953E-017
   7.1266666666666660E-005     6.2756307102601589E-017
   7.1466666666666665E-005     6.8942539440979467E-017
   7.1666666666666656E-005     6.3086828623043077E-017
   7.1866666666666661E-005     4.5435542122435215E-017
   7.2066666666666666E-005     1.8546916308849653E-017
   7.2266666666666657E-005    -1.2719225406982885E-017
   7.2466666666666662E-005    -4.1612495310949882E-017
   7.2666666666666667E-005    -6.0326414422390317E-017
   7.2866666666666658E-005    -6.1212331475879510E-017
   7.3066666666666663E-005    -3.8256544156483444E-017
   7.3266666666666654E-005     1.1357979767838058E-017
   7.3466666666666659E-005     8.5851136865522918E-017
   7.3666666666666664E-005     1.7786950738511460E-016
   7.3866666666666655E-005     2.7420743491579289E-016
   7.4066666666666660E-005     3.5644067568791097E-016
   7.4266666666666665E-005     4.0261058875817077E-016
   7.4466666666666656E-005     3.8995364012514577E-016
   7.4666666666666661E-005     2.9851701580419529E-016
   7.4866666666666666E-005     1.1532579893482894E-016
   7.5066666666666657E-005    -1.6141033373098346E-016
   7.5266666666666662E-005    -5.1867596656996091E-016
   7.5466666666666653E-005    -9.2633831276511553E-016