  -3.3333333333333335E-005     0.0000000000000000     
  -3.3133333333333337E-005     0.0000000000000000     
  -3.2933333333333332E-005     0.0000000000000000     
  -3.2733333333333334E-005     0.0000000000000000     
  -3.2533333333333336E-005     0.0000000000000000     
  -3.2333333333333338E-005     0.0000000000000000     
  -3.2133333333333333E-005     0.0000000000000000     
  -3.1933333333333335E-005     0.0000000000000000     
  -3.1733333333333337E-005     0.0000000000000000     
  -3.1533333333333332E-005     0.0000000000000000     
  -3.1333333333333334E-005     0.0000000000000000     
  -3.1133333333333336E-005     0.0000000000000000     
  -3.0933333333333338E-005     0.0000000000000000     
  -3.0733333333333333E-005     0.0000000000000000     
  -3.0533333333333335E-005     0.0000000000000000     
  -3.0333333333333337E-005     0.0000000000000000     
  -3.0133333333333335E-005     0.0000000000000000     
  -2.9933333333333334E-005     0.0000000000000000     
  -2.9733333333333336E-005     0.0000000000000000     
  -2.9533333333333334E-005     0.0000000000000000     
  -2.9333333333333336E-005     0.0000000000000000     
  -2.9133333333333334E-005     0.0000000000000000     
  -2.8933333333333336E-005     0.0000000000000000     
  -2.8733333333333335E-005     0.0000000000000000     
  -2.8533333333333333E-005     0.0000000000000000     
  -2.8333333333333335E-005     0.0000000000000000     
  -2.8133333333333337E-005     0.0000000000000000     
  -2.7933333333333336E-005     0.0000000000000000     
  -2.7733333333333334E-005     0.0000000000000000     
  -2.7533333333333336E-005     0.0000000000000000     
  -2.7333333333333335E-005     0.0000000000000000     
  -2.7133333333333333E-005     0.0000000000000000     
  -2.6933333333333335E-005     0.0000000000000000     
  -2.6733333333333337E-005     0.0000000000000000     
  -2.6533333333333336E-005     0.0000000000000000     
  -2.6333333333333334E-005     0.0000000000000000     
  -2.6133333333333336E-005     0.0000000000000000     
  -2.5933333333333335E-005     0.0000000000000000     
  -2.5733333333333333E-005     0.0000000000000000     
  -2.5533333333333335E-005     0.0000000000000000     
  -2.5333333333333337E-005     0.0000000000000000     
  -2.5133333333333336E-005     0.0000000000000000     
  -2.4933333333333334E-005     0.0000000000000000     
  -2.4733333333333336E-005     0.0000000000000000     
  -2.4533333333333334E-005     0.0000000000000000     
  -2.4333333333333333E-005     0.0000000000000000     
  -2.4133333333333335E-005     0.0000000000000000     
  -2.3933333333333337E-005     0.0000000000000000     
  -2.3733333333333335E-005     0.0000000000000000     
  -2.3533333333333334E-005     0.0000000000000000     
  -2.3333333333333336E-005     0.0000000000000000     
  -2.3133333333333338E-005     0.0000000000000000     
  -2.2933333333333336E-005     0.0000000000000000     
  -2.2733333333333335E-005     0.0000000000000000     
  -2.2533333333333337E-005     0.0000000000000000     
  -2.2333333333333335E-005     0.0000000000000000     
  -2.2133333333333334E-005     0.0000000000000000     
  -2.1933333333333336E-005     0.0000000000000000     
  -2.1733333333333338E-005     0.0000000000000000     
  -2.1533333333333336E-005     0.0000000000000000     
  -2.1333333333333335E-005     0.0000000000000000     
  -2.1133333333333337E-005     0.0000000000000000     
  -2.0933333333333335E-005     0.0000000000000000     
  -2.0733333333333334E-005     0.0000000000000000     
  -2.0533333333333336E-005     0.0000000000000000     
  -2.0333333333333337E-005     0.0000000000000000     
  -2.0133333333333336E-005     0.0000000000000000     
  -1.9933333333333334E-005     0.0000000000000000     
  -1.9733333333333336E-005     0.0000000000000000     
  -1.9533333333333335E-005     0.0000000000000000     
  -1.9333333333333333E-005     0.0000000000000000     
  -1.9133333333333335E-005     0.0000000000000000     
  -1.8933333333333337E-005     0.0000000000000000     
  -1.8733333333333336E-005     0.0000000000000000     
  -1.8533333333333334E-005     0.0000000000000000     
  -1.8333333333333336E-005     0.0000000000000000     
  -1.8133333333333335E-005     0.0000000000000000     
  -1.7933333333333337E-005     0.0000000000000000     
  -1.7733333333333335E-005     0.0000000000000000     
  -1.7533333333333337E-005     0.0000000000000000     
  -1.7333333333333336E-005     0.0000000000000000     
  -1.7133333333333334E-005     0.0000000000000000     
  -1.6933333333333336E-005     0.0000000000000000     
  -1.6733333333333335E-005     0.0000000000000000     
  -1.6533333333333337E-005     0.0000000000000000     
  -1.6333333333333335E-005     0.0000000000000000     
  -1.6133333333333337E-005     0.0000000000000000     
  -1.5933333333333336E-005     0.0000000000000000     
  -1.5733333333333334E-005     0.0000000000000000     
  -1.5533333333333336E-005     0.0000000000000000     
  -1.5333333333333334E-005     0.0000000000000000     
  -1.5133333333333336E-005     0.0000000000000000     
  -1.4933333333333335E-005     0.0000000000000000     
  -1.4733333333333337E-005     0.0000000000000000     
  -1.4533333333333335E-005     0.0000000000000000     
  -1.4333333333333337E-005     0.0000000000000000     
  -1.4133333333333336E-005     0.0000000000000000     
  -1.3933333333333334E-005     0.0000000000000000     
  -1.3733333333333336E-005     0.0000000000000000     
  -1.3533333333333335E-005     0.0000000000000000     
  -1.3333333333333337E-005     0.0000000000000000     
  -1.3133333333333335E-005     0.0000000000000000     
  -1.2933333333333337E-005     0.0000000000000000     
  -1.2733333333333336E-005     0.0000000000000000     
  -1.2533333333333338E-005     0.0000000000000000     
  -1.2333333333333336E-005     0.0000000000000000     
  -1.2133333333333335E-005     0.0000000000000000     
  -1.1933333333333337E-005     0.0000000000000000     
  -1.1733333333333335E-005     0.0000000000000000     
  -1.1533333333333337E-005     0.0000000000000000     
  -1.1333333333333336E-005     0.0000000000000000     
  -1.1133333333333337E-005     0.0000000000000000     
  -1.0933333333333336E-005     0.0000000000000000     
  -1.0733333333333334E-005     0.0000000000000000     
  -1.0533333333333336E-005     0.0000000000000000     
  -1.0333333333333335E-005     0.0000000000000000     
  -1.0133333333333337E-005     0.0000000000000000     
  -9.9333333333333354E-006     0.0000000000000000     
  -9.7333333333333373E-006     0.0000000000000000     
  -9.5333333333333358E-006     0.0000000000000000     
  -9.3333333333333343E-006     0.0000000000000000     
  -9.1333333333333362E-006     0.0000000000000000     
  -8.9333333333333348E-006     0.0000000000000000     
  -8.7333333333333367E-006     0.0000000000000000     
  -8.5333333333333352E-006     0.0000000000000000     
  -8.3333333333333371E-006     0.0000000000000000     
  -8.1333333333333356E-006     0.0000000000000000     
  -7.9333333333333376E-006     0.0000000000000000     
  -7.7333333333333361E-006     0.0000000000000000     
  -7.5333333333333346E-006     0.0000000000000000     
  -7.3333333333333365E-006     0.0000000000000000     
  -7.1333333333333351E-006     0.0000000000000000     
  -6.9333333333333370E-006     0.0000000000000000     
  -6.7333333333333355E-006     0.0000000000000000     
  -6.5333333333333374E-006     0.0000000000000000     
  -6.3333333333333359E-006     0.0000000000000000     
  -6.1333333333333379E-006     0.0000000000000000     
  -5.9333333333333364E-006     0.0000000000000000     
  -5.7333333333333349E-006     0.0000000000000000     
  -5.5333333333333368E-006     0.0000000000000000     
  -5.3333333333333354E-006     0.0000000000000000     
  -5.1333333333333373E-006     0.0000000000000000     
  -4.9333333333333358E-006     0.0000000000000000     
  -4.7333333333333377E-006     0.0000000000000000     
  -4.5333333333333362E-006     0.0000000000000000     
  -4.3333333333333348E-006     0.0000000000000000     
  -4.1333333333333367E-006     0.0000000000000000     
  -3.9333333333333352E-006     0.0000000000000000     
  -3.7333333333333371E-006     0.0000000000000000     
  -3.5333333333333356E-006     0.0000000000000000     
  -3.3333333333333376E-006     0.0000000000000000     
  -3.1333333333333361E-006     0.0000000000000000     
  -2.9333333333333346E-006     0.0000000000000000     
  -2.7333333333333365E-006     0.0000000000000000     
  -2.5333333333333384E-006     0.0000000000000000     
  -2.3333333333333336E-006     0.0000000000000000     
  -2.1333333333333355E-006     0.0000000000000000     
  -1.9333333333333374E-006     0.0000000000000000     
  -1.7333333333333393E-006     0.0000000000000000     
  -1.5333333333333345E-006     0.0000000000000000     
  -1.3333333333333364E-006     0.0000000000000000     
  -1.1333333333333383E-006     0.0000000000000000     
  -9.3333333333333343E-007     0.0000000000000000     
  -7.3333333333333535E-007     0.0000000000000000     
  -5.3333333333333726E-007     0.0000000000000000     
  -3.3333333333333918E-007     0.0000000000000000     
  -1.3333333333333432E-007     0.0000000000000000     
   6.6666666666663770E-008     0.0000000000000000     
   2.6666666666666185E-007     0.0000000000000000     
   4.6666666666666672E-007     0.0000000000000000     
   6.6666666666666480E-007     0.0000000000000000     
   8.6666666666666289E-007     0.0000000000000000     
   1.0666666666666610E-006     0.0000000000000000     
   1.2666666666666658E-006     0.0000000000000000     
   1.4666666666666639E-006     0.0000000000000000     
   1.6666666666666620E-006     0.0000000000000000     
   1.8666666666666669E-006     0.0000000000000000     
   2.0666666666666649E-006     0.0000000000000000     
   2.2666666666666630E-006     0.0000000000000000     
   2.4666666666666611E-006     0.0000000000000000     
   2.6666666666666660E-006     0.0000000000000000     
   2.8666666666666641E-006     0.0000000000000000     
   3.0666666666666622E-006     0.0000000000000000     
   3.2666666666666602E-006     0.0000000000000000     
   3.4666666666666651E-006     0.0000000000000000     
   3.6666666666666632E-006     0.0000000000000000     
   3.8666666666666613E-006     0.0000000000000000     
   4.0666666666666661E-006     0.0000000000000000     
   4.2666666666666642E-006     0.0000000000000000     
   4.4666666666666623E-006     0.0000000000000000     
   4.6666666666666604E-006     0.0000000000000000     
   4.8666666666666652E-006     0.0000000000000000     
   5.0666666666666633E-006     0.0000000000000000     
   5.2666666666666614E-006     0.0000000000000000     
   5.4666666666666663E-006     0.0000000000000000     
   5.6666666666666644E-006     0.0000000000000000     
   5.8666666666666624E-006     0.0000000000000000     
   6.0666666666666605E-006     0.0000000000000000     
   6.2666666666666654E-006     0.0000000000000000     
   6.4666666666666635E-006     0.0000000000000000     
   6.6666666666666616E-006     0.0000000000000000     
   6.8666666666666664E-006     0.0000000000000000     
   7.0666666666666645E-006     0.0000000000000000     
   7.2666666666666626E-006     0.0000000000000000     
   7.4666666666666607E-006     0.0000000000000000     
   7.6666666666666655E-006     0.0000000000000000     
   7.8666666666666636E-006     0.0000000000000000     
   8.0666666666666617E-006     0.0000000000000000     
   8.2666666666666598E-006     0.0000000000000000     
   8.4666666666666647E-006     0.0000000000000000     
   8.6666666666666627E-006     0.0000000000000000     
   8.8666666666666608E-006     0.0000000000000000     
   9.0666666666666657E-006     0.0000000000000000     
   9.2666666666666638E-006     0.0000000000000000     
   9.4666666666666619E-006     0.0000000000000000     
   9.6666666666666599E-006     0.0000000000000000     
   9.8666666666666648E-006     2.5761274382788474E-035
   1.0066666666666663E-005     6.3475707712819827E-035
   1.0266666666666661E-005     1.1459173517521641E-034
   1.0466666666666666E-005     1.7142170981137810E-034
   1.0666666666666664E-005     2.1255504664984574E-034
   1.0866666666666662E-005     2.0246928216091647E-034
   1.1066666666666660E-005     1.1412584222376990E-034
   1.1266666666666665E-005    -1.0335798106656417E-034
   1.1466666666666663E-005    -4.4718624455011867E-034
   1.1666666666666661E-005    -9.2595903249728995E-034
   1.1866666666666666E-005    -1.5145873694940696E-033
   1.2066666666666664E-005    -2.0929741201238140E-033
   1.2266666666666662E-005    -2.4845959405720132E-033
   1.2466666666666660E-005    -2.4277433399654855E-033
   1.2666666666666665E-005    -1.5851752542479710E-033
   1.2866666666666663E-005     3.2779672459024629E-034
   1.3066666666666661E-005     3.4950503335258746E-033
   1.3266666666666666E-005     7.8919531573140548E-033
   1.3466666666666664E-005     1.3057855569202544E-032
   1.3666666666666662E-005     1.8005781655514242E-032
   1.3866666666666660E-005     2.1131845781684939E-032
   1.4066666666666665E-005     2.0372661571413996E-032
   1.4266666666666663E-005     1.3421741600443092E-032
   1.4466666666666661E-005    -1.7646352217231249E-033
   1.4666666666666666E-005    -2.6141475035839236E-032
   1.4866666666666664E-005    -5.8686202816497457E-032
   1.5066666666666662E-005    -9.5487204623651172E-032
   1.5266666666666661E-005    -1.2911085695547575E-031
   1.5466666666666665E-005    -1.4856517091214953E-031
   1.5666666666666663E-005    -1.4022708385323583E-031
   1.5866666666666662E-005    -9.0056503007456762E-032
   1.6066666666666660E-005     1.2848295783177640E-032
   1.6266666666666665E-005     1.7166958290722264E-031
   1.6466666666666663E-005     3.7669656867580861E-031
   1.6666666666666661E-005     6.0086790229570003E-031
   1.6866666666666666E-005     7.9749524036621974E-031
   1.7066666666666664E-005     9.0184613083786778E-031
   1.7266666666666662E-005     8.3821408256005958E-031
   1.7466666666666660E-005     5.3341667287207022E-031
   1.7666666666666665E-005    -6.3560225572972957E-032
   1.7866666666666663E-005    -9.5763706755840292E-031
   1.8066666666666661E-005    -2.0834002960979663E-030
   1.8266666666666666E-005    -3.2863888015091506E-030
   1.8466666666666664E-005    -4.3171408653723153E-030
   1.8666666666666662E-005    -4.8454381192872324E-030
   1.8866666666666660E-005    -4.5006684473774974E-030
   1.9066666666666665E-005    -2.9406036905594014E-030
   1.9266666666666663E-005     5.4886764098297905E-032
   1.9466666666666661E-005     4.4760880141458708E-030
   1.9666666666666666E-005     9.9806331510239089E-030
   1.9866666666666664E-005     1.5821642386926512E-029
   2.0066666666666662E-005     2.0836775999173027E-029
   2.0266666666666660E-005     2.3526910431594810E-029
   2.0466666666666665E-005     2.2244836923209456E-029
   2.0666666666666663E-005     1.5498027475591463E-029
   2.0866666666666661E-005     2.3457335836195629E-030
   2.1066666666666659E-005    -1.7158362652851085E-029
   2.1266666666666664E-005    -4.1556473513320538E-029
   2.1466666666666662E-005    -6.7712952394484461E-029
   2.1666666666666660E-005    -9.0791039898867516E-029
   2.1866666666666665E-005    -1.0458588025593674E-028
   2.2066666666666663E-005    -1.0228514027024745E-028
   2.2266666666666661E-005    -7.7664762047868015E-029
   2.2466666666666659E-005    -2.6638193080707166E-029
   2.2666666666666664E-005     5.1029367584111287E-029
   2.2866666666666662E-005     1.5013790307821073E-028
   2.3066666666666660E-005     2.5898302555440845E-028
   2.3266666666666665E-005     3.5922199766642814E-028
   2.3466666666666663E-005     4.2706210958549077E-028
   2.3666666666666661E-005     4.3603025051977854E-028
   2.3866666666666660E-005     3.6135063173746213E-028
   2.4066666666666664E-005     1.8563429658603654E-028
   2.4266666666666662E-005    -9.4800308449409187E-029
   2.4466666666666661E-005    -4.6404049414846040E-028
   2.4666666666666665E-005    -8.8249547836773878E-028
   2.4866666666666663E-005    -1.2861160834868717E-027
   2.5066666666666662E-005    -1.5902820514638366E-027
   2.5266666666666660E-005    -1.6992483751188471E-027
   2.5466666666666665E-005    -1.5212162777281660E-027
   2.5666666666666663E-005    -9.8794592061277310E-028
   2.5866666666666661E-005    -7.6513073996717677E-029
   2.6066666666666666E-005     1.1704750644235984E-027
   2.6266666666666664E-005     2.6308432225993024E-027
   2.6466666666666662E-005     4.0999335323071473E-027
   2.6666666666666660E-005     5.3031247538820405E-027
   2.6866666666666665E-005     5.9263356542143284E-027
   2.7066666666666663E-005     5.6641876998340598E-027
   2.7266666666666661E-005     4.2817440153592245E-027
   2.7466666666666666E-005     1.6816409457882756E-027
   2.7666666666666664E-005    -2.0352364835669223E-027
   2.7866666666666662E-005    -6.5296813575422397E-027
   2.8066666666666667E-005    -1.1218838519267084E-026
   2.8266666666666658E-005    -1.5316751365876581E-026
   2.8466666666666663E-005    -1.7925653046398463E-026
   2.8666666666666668E-005    -1.8173725149187183E-026
   2.8866666666666659E-005    -1.5384272928982842E-026
   2.9066666666666664E-005    -9.2506952719867914E-027
   2.9266666666666669E-005     1.6281394966572664E-029
   2.9466666666666660E-005     1.1605376510965491E-026
   2.9666666666666665E-005     2.4117354498744142E-026
   2.9866666666666656E-005     3.5692748132335413E-026
   3.0066666666666661E-005     4.4253990528738706E-026
   3.0266666666666666E-005     4.7836645470630686E-026
   3.0466666666666657E-005     4.4959469452575439E-026
   3.0666666666666662E-005     3.4963865307814486E-026
   3.0866666666666667E-005     1.8245660943725979E-026
   3.1066666666666658E-005    -3.6889242895493672E-027
   3.1266666666666663E-005    -2.8383859400825408E-026
   3.1466666666666668E-005    -5.2807285767819480E-026
   3.1666666666666659E-005    -7.3882278007550260E-026
   3.1866666666666664E-005    -8.9065927584598261E-026
   3.2066666666666656E-005    -9.6832189240789258E-026
   3.2266666666666660E-005    -9.6907476153431288E-026
   3.2466666666666665E-005    -9.0142124911570205E-026
   3.2666666666666657E-005    -7.7977261129528355E-026
   3.2866666666666661E-005    -6.1579043092351987E-026
   3.3066666666666666E-005    -4.0839513952566442E-026
   3.3266666666666658E-005    -1.3555889025162886E-026
   3.3466666666666662E-005     2.4838405721739212E-026
   3.3666666666666667E-005     8.0642144200929729E-026
   3.3866666666666659E-005     1.6013925679793116E-025
   3.4066666666666664E-005     2.6676768716010214E-025
   3.4266666666666668E-005     3.9756748125963370E-025
   3.4466666666666660E-005     5.3963307190233639E-025
   3.4666666666666665E-005     6.6760233446632181E-025
   3.4866666666666656E-005     7.4336764194356209E-025
   3.5066666666666661E-005     7.1910173815709143E-025
   3.5266666666666666E-005     5.4428690750888117E-025
   3.5466666666666657E-005     1.7671091946366718E-025
   3.5666666666666662E-005    -4.0358648996647002E-025
   3.5866666666666667E-005    -1.1795254344776058E-024
   3.6066666666666658E-005    -2.0844475989868721E-024
   3.6266666666666663E-005    -2.9955314574192066E-024
   3.6466666666666668E-005    -3.7368573794286369E-024
   3.6666666666666659E-005    -4.0949745924195566E-024
   3.6866666666666664E-005    -3.8481013609915462E-024
   3.7066666666666669E-005    -2.8075699639626487E-024
   3.7266666666666660E-005    -8.6711955550062282E-025
   3.7466666666666665E-005     1.9473506734076072E-024
   3.7666666666666656E-005     5.4373287077362183E-024
   3.7866666666666661E-005     9.2113765401110472E-024
   3.8066666666666666E-005     1.2695028896055917E-023
   3.8266666666666657E-005     1.5178008827145218E-023
   3.8466666666666662E-005     1.5900775810283193E-023
   3.8666666666666667E-005     1.4175537010564840E-023
   3.8866666666666658E-005     9.5292433087044226E-024
   3.9066666666666663E-005     1.8488290460936498E-024
   3.9266666666666668E-005    -8.4964815999462731E-024
   3.9466666666666659E-005    -2.0583088112215096E-023
   3.9666666666666664E-005    -3.2936305944621465E-023
   3.9866666666666655E-005    -4.3627220300328013E-023
   4.0066666666666660E-005    -5.0469569444830745E-023
   4.0266666666666665E-005    -5.1308147519742406E-023
   4.0466666666666656E-005    -4.4373059887221892E-023
   4.0666666666666661E-005    -2.8658335343713264E-023
   4.0866666666666666E-005    -4.2702646131555494E-024
   4.1066666666666657E-005     2.7315479512860882E-023
   4.1266666666666662E-005     6.3148031473016115E-023
   4.1466666666666667E-005     9.8896058564898728E-023
   4.1666666666666658E-005     1.2917275467744738E-022
   4.1866666666666663E-005     1.4809283249359158E-022
   4.2066666666666668E-005     1.5003028749858887E-022
   4.2266666666666660E-005     1.3050991808800769E-022
   4.2466666666666664E-005     8.7133050684560616E-023
   4.2666666666666656E-005     2.0411555041540219E-023
   4.2866666666666661E-005    -6.5629914098586254E-023
   4.3066666666666665E-005    -1.6322158169037118E-022
   4.3266666666666657E-005    -2.6110329134890052E-022
   4.3466666666666662E-005    -3.4534119095686381E-022
   4.3666666666666666E-005    -4.0071831773561603E-022
   4.3866666666666658E-005    -4.1263213688837067E-022
   4.4066666666666663E-005    -3.6934096502277957E-022
   4.4266666666666667E-005    -2.6431313481780861E-022
   4.4466666666666659E-005    -9.8356206337576160E-023
   4.4666666666666664E-005     1.1884113806507642E-022
   4.4866666666666655E-005     3.6812326670770593E-022
   4.5066666666666660E-005     6.2154777338341064E-022
   4.5266666666666665E-005     8.4452000244172622E-022
   4.5466666666666656E-005     9.9938695392240615E-022
   4.5666666666666661E-005     1.0502645190719736E-021
   4.5866666666666666E-005     9.6862617489309044E-022
   4.6066666666666657E-005     7.3895178358401714E-022
   4.6266666666666662E-005     3.6357362187737048E-022
   4.6466666666666667E-005    -1.3419627140899272E-022
   4.6666666666666658E-005    -7.0948039454884155E-022
   4.6866666666666663E-005    -1.2983683167141436E-021
   4.7066666666666668E-005    -1.8237434191911936E-021
   4.7266666666666659E-005    -2.2040762584713524E-021
   4.7466666666666664E-005    -2.3643235190046783E-021
   4.7666666666666655E-005    -2.2475765478965868E-021
   4.7866666666666660E-005    -1.8257830979477331E-021
   4.8066666666666665E-005    -1.1077593271735735E-021
   4.8266666666666656E-005    -1.4290145878318969E-022
   4.8466666666666661E-005     9.8049841792069631E-022
   4.8666666666666666E-005     2.1426986896160292E-021
   4.8866666666666657E-005     3.2051938091367452E-021
   4.9066666666666662E-005     4.0272309981006339E-021
   4.9266666666666667E-005     4.4840196809567359E-021
   4.9466666666666658E-005     4.4840669368804023E-021
   4.9666666666666663E-005     3.9830543835114738E-021
   4.9866666666666655E-005     2.9920885765502871E-021
   5.0066666666666659E-005     1.5789782323612127E-021
   5.0266666666666664E-005    -1.3774292692999397E-022
   5.0466666666666656E-005    -2.0011873930744562E-021
   5.0666666666666660E-005    -3.8330244999096684E-021
   5.0866666666666665E-005    -5.4524288623029054E-021
   5.1066666666666657E-005    -6.6943912766436927E-021
   5.1266666666666661E-005    -7.4250518670565729E-021
   5.1466666666666666E-005    -7.5525006892879610E-021
   5.1666666666666658E-005    -7.0324973130569081E-021
   5.1866666666666662E-005    -5.8696146577458973E-021
   5.2066666666666667E-005    -4.1150914732031170E-021
   5.2266666666666659E-005    -1.8629912813316308E-021
   5.2466666666666664E-005     7.5393761642831966E-022
   5.2666666666666655E-005     3.5681021372810885E-021
   5.2866666666666660E-005     6.3810626923094218E-021
   5.3066666666666665E-005     8.9692486288831905E-021
   5.3266666666666656E-005     1.1093728746287096E-020
   5.3466666666666661E-005     1.2516418007567216E-020
   5.3666666666666666E-005     1.3024173617736228E-020
   5.3866666666666657E-005     1.2460471840707648E-020
   5.4066666666666662E-005     1.0761705395432986E-020
   5.4266666666666667E-005     7.9922384655329601E-021
   5.4466666666666658E-005     4.3697520302539944E-021
   5.4666666666666663E-005     2.7111960341289827E-022
   5.4866666666666668E-005    -3.7908467705019169E-021
   5.5066666666666659E-005    -7.2265139797596412E-021
   5.5266666666666664E-005    -9.4658437631312730E-021
   5.5466666666666655E-005    -1.0085975575366023E-020
   5.5666666666666660E-005    -8.9544692377823407E-021
   5.5866666666666665E-005    -6.3633792833354000E-021
   5.6066666666666656E-005    -3.1213143426805654E-021
   5.6266666666666661E-005    -5.6659216338531060E-022
   5.6466666666666666E-005    -4.6665865806673761E-022
   5.6666666666666657E-005    -4.7780658289512149E-021
   5.6866666666666662E-005    -1.5260584035156916E-020
   5.7066666666666667E-005    -3.2965806666660540E-020
   5.7266666666666658E-005    -5.7654792425327201E-020
   5.7466666666666663E-005    -8.7235727557806735E-020
   5.7666666666666654E-005    -1.1734543143451226E-019
   5.7866666666666659E-005    -1.4121962167159431E-019
   5.8066666666666664E-005    -1.4999814054579867E-019
   5.8266666666666655E-005    -1.3358354262090225E-019
   5.8466666666666660E-005    -8.2109062454007672E-020
   5.8666666666666665E-005     1.2022213942277294E-020
   5.8866666666666656E-005     1.5169180577469807E-019
   5.9066666666666661E-005     3.3251926501838072E-019
   5.9266666666666666E-005     5.4065264129138358E-019
   5.9466666666666657E-005     7.5143537366881722E-019
   5.9666666666666662E-005     9.2952156928719621E-019
   5.9866666666666667E-005     1.0309527307451330E-018
   6.0066666666666659E-005     1.0075353510013333E-018
   6.0266666666666663E-005     8.1355979129763496E-019
   6.0466666666666655E-005     4.1450400481126108E-019
   6.0666666666666660E-005    -2.0310300662473234E-019
   6.0866666666666664E-005    -1.0219585891496908E-018
   6.1066666666666656E-005    -1.9860916700127902E-018
   6.1266666666666661E-005    -2.9967155066262434E-018
   6.1466666666666665E-005    -3.9137078745726755E-018
   6.1666666666666657E-005    -4.5642473760374543E-018
   6.1866666666666662E-005    -4.7594210551596474E-018
   6.2066666666666666E-005    -4.3185635671709356E-018
   6.2266666666666658E-005    -3.0997960662256109E-018
   6.2466666666666663E-005    -1.0338039189190267E-018
   6.2666666666666668E-005     1.8434483024859302E-018
   6.2866666666666659E-005     5.3643924174497988E-018
   6.3066666666666664E-005     9.2157424543645517E-018
   6.3266666666666655E-005     1.2942124112286325E-017
   6.3466666666666660E-005     1.5971843504967974E-017
   6.3666666666666665E-005     1.7667002932246370E-017
   6.3866666666666656E-005     1.7397231210352001E-017
   6.4066666666666661E-005     1.4632593425491545E-017
   6.4266666666666666E-005     9.0473582601508072E-018
   6.4466666666666657E-005     6.2252418658731489E-019
   6.4666666666666662E-005    -1.0267874007320763E-017
   6.4866666666666667E-005    -2.2803177459463707E-017
   6.5066666666666658E-005    -3.5711339190159830E-017
   6.5266666666666663E-005    -4.7326208996212969E-017
   6.5466666666666654E-005    -5.5714849420182685E-017
   6.5666666666666659E-005    -5.8874778621808757E-017
   6.5866666666666664E-005    -5.4991738054856179E-017
   6.6066666666666655E-005    -4.2737305434066840E-017
   6.6266666666666660E-005    -2.1575300632022643E-017
   6.6466666666666665E-005     7.9629625274019654E-018
   6.6666666666666656E-005     4.4080302641718135E-017
   6.6866666666666661E-005     8.3638375787384366E-017
   6.7066666666666666E-005     1.2224608458367617E-016
   6.7266666666666657E-005     1.5453991714690582E-016
   6.7466666666666662E-005     1.7466467881983915E-016
   6.7666666666666667E-005     1.7693831377361670E-016
   6.7866666666666658E-005     1.5665511723487742E-016
   6.8066666666666663E-005     1.1095166785564853E-016
   6.8266666666666655E-005     3.9634253171359914E-017
   6.8466666666666659E-005    -5.4153079484123366E-017
   6.8666666666666664E-005    -1.6354725227311825E-016
   6.8866666666666656E-005    -2.7799025758845099E-016
   6.9066666666666660E-005    -3.8375034139636970E-016
   6.9266666666666665E-005    -4.6498673026868788E-016
   6.9466666666666657E-005    -5.0534250330987575E-016
   6.9666666666666661E-005    -4.8997663743241310E-016
   6.9866666666666666E-005    -4.0786603114918967E-016
   7.0066666666666658E-005    -2.5413656571412861E-016
   7.0266666666666662E-005    -3.2120875714589708E-017
   7.0466666666666654E-005     2.4518967432963666E-016
   7.0666666666666659E-005     5.5462801531837367E-016
   7.0866666666666664E-005     8.6354866035766070E-016
   7.1066666666666655E-005     1.1319232675799829E-015
   7.1266666666666660E-005     1.3158752126802122E-015
   7.1466666666666665E-005     1.3725148235554496E-015
   7.1666666666666656E-005     1.2657373208289804E-015
   7.1866666666666661E-005     9.7244337487535117E-016
   7.2066666666666666E-005     4.8846436598420895E-016
   7.2266666666666657E-005    -1.6664102687807478E-016
   7.2466666666666662E-005    -9.4679818184780634E-016
   7.2666666666666667E-005    -1.7794446980094660E-015
   7.2866666666666658E-005    -2.5689973541883791E-015
   7.3066666666666663E-005    -3.2040791528753672E-015
   7.3266666666666654E-005    -3.5683952232694934E-015
   7.3466666666666659E-005    -3.5546707484251320E-015
   7.3666666666666664E-005    -3.0805127159804890E-015
   7.3866666666666655E-005    -2.1045846475601336E-015
   7.4066666666666660E-005    -6.4105703379471594E-016
   7.4266666666666665E-005     1.2298954393032699E-015
   7.4466666666666656E-005     3.3577881042312369E-015
   7.4666666666666661E-005     5.5256232430616909E-015
   7.4866666666666666E-005     7.4630777022167104E-015
   7.5066666666666657E-005     8.8694573265198605E-015
   7.5266666666666662E-005     9.4455972787809740E-015
   7.5466666666666653E-005     8.9325841509798817E-015