  -3.3333333333333335E-005     0.0000000000000000     
  -3.3133333333333337E-005     0.0000000000000000     
  -3.2933333333333332E-005     0.0000000000000000     
  -3.2733333333333334E-005     0.0000000000000000     
  -3.2533333333333336E-005     0.0000000000000000     
  -3.2333333333333338E-005     0.0000000000000000     
  -3.2133333333333333E-005     0.0000000000000000     
  -3.1933333333333335E-005     0.0000000000000000     
  -3.1733333333333337E-005     0.0000000000000000     
  -3.1533333333333332E-005     0.0000000000000000     
  -3.1333333333333334E-005     0.0000000000000000     
  -3.1133333333333336E-005     0.0000000000000000     
  -3.0933333333333338E-005     0.0000000000000000     
  -3.0733333333333333E-005     0.0000000000000000     
  -3.0533333333333335E-005     0.0000000000000000     
  -3.0333333333333337E-005     0.0000000000000000     
  -3.0133333333333335E-005     0.0000000000000000     
  -2.9933333333333334E-005     0.0000000000000000     
  -2.9733333333333336E-005     0.0000000000000000     
  -2.9533333333333334E-005     0.0000000000000000     
  -2.9333333333333336E-005     0.0000000000000000     
  -2.9133333333333334E-005     0.0000000000000000     
  -2.8933333333333336E-005     0.0000000000000000     
  -2.8733333333333335E-005     0.0000000000000000     
  -2.8533333333333333E-005     0.0000000000000000     
  -2.8333333333333335E-005     0.0000000000000000     
  -2.8133333333333337E-005     0.0000000000000000     
  -2.7933333333333336E-005     0.0000000000000000     
  -2.7733333333333334E-005     0.0000000000000000     
  -2.7533333333333336E-005     0.0000000000000000     
  -2.7333333333333335E-005     0.0000000000000000     
  -2.7133333333333333E-005     0.0000000000000000     
  -2.6933333333333335E-005     0.0000000000000000     
  -2.6733333333333337E-005     0.0000000000000000     
  -2.6533333333333336E-005     0.0000000000000000     
  -2.6333333333333334E-005     0.0000000000000000     
  -2.6133333333333336E-005     0.0000000000000000     
  -2.5933333333333335E-005     0.0000000000000000     
  -2.5733333333333333E-005     0.0000000000000000     
  -2.5533333333333335E-005     0.0000000000000000     
  -2.5333333333333337E-005     0.0000000000000000     
  -2.5133333333333336E-005     0.0000000000000000     
  -2.4933333333333334E-005     0.0000000000000000     
  -2.4733333333333336E-005     0.0000000000000000     
  -2.4533333333333334E-005     0.0000000000000000     
  -2.4333333333333333E-005     0.0000000000000000     
  -2.4133333333333335E-005     0.0000000000000000     
  -2.3933333333333337E-005     0.0000000000000000     
  -2.3733333333333335E-005     0.0000000000000000     
  -2.3533333333333334E-005     0.0000000000000000     
  -2.3333333333333336E-005     0.0000000000000000     
  -2.3133333333333338E-005     0.0000000000000000     
  -2.2933333333333336E-005     0.0000000000000000     
  -2.2733333333333335E-005     0.0000000000000000     
  -2.2533333333333337E-005     0.0000000000000000     
  -2.2333333333333335E-005     0.0000000000000000     
  -2.2133333333333334E-005     0.0000000000000000     
  -2.1933333333333336E-005     0.0000000000000000     
  -2.1733333333333338E-005     0.0000000000000000     
  -2.1533333333333336E-005     0.0000000000000000     
  -2.1333333333333335E-005     0.0000000000000000     
  -2.1133333333333337E-005     0.0000000000000000     
  -2.0933333333333335E-005     0.0000000000000000     
  -2.0733333333333334E-005     0.0000000000000000     
  -2.0533333333333336E-005     0.0000000000000000     
  -2.0333333333333337E-005     0.0000000000000000     
  -2.0133333333333336E-005     0.0000000000000000     
  -1.9933333333333334E-005     0.0000000000000000     
  -1.9733333333333336E-005     0.0000000000000000     
  -1.9533333333333335E-005     0.0000000000000000     
  -1.9333333333333333E-005     0.0000000000000000     
  -1.9133333333333335E-005     0.0000000000000000     
  -1.8933333333333337E-005     0.0000000000000000     
  -1.8733333333333336E-005     0.0000000000000000     
  -1.8533333333333334E-005     0.0000000000000000     
  -1.8333333333333336E-005     0.0000000000000000     
  -1.8133333333333335E-005     0.0000000000000000     
  -1.7933333333333337E-005     0.0000000000000000     
  -1.7733333333333335E-005     0.0000000000000000     
  -1.7533333333333337E-005     0.0000000000000000     
  -1.7333333333333336E-005     0.0000000000000000     
  -1.7133333333333334E-005     0.0000000000000000     
  -1.6933333333333336E-005     0.0000000000000000     
  -1.6733333333333335E-005     0.0000000000000000     
  -1.6533333333333337E-005     0.0000000000000000     
  -1.6333333333333335E-005     0.0000000000000000     
  -1.6133333333333337E-005     0.0000000000000000     
  -1.5933333333333336E-005     0.0000000000000000     
  -1.5733333333333334E-005     0.0000000000000000     
  -1.5533333333333336E-005     0.0000000000000000     
  -1.5333333333333334E-005     0.0000000000000000     
  -1.5133333333333336E-005     0.0000000000000000     
  -1.4933333333333335E-005     0.0000000000000000     
  -1.4733333333333337E-005     0.0000000000000000     
  -1.4533333333333335E-005     0.0000000000000000     
  -1.4333333333333337E-005     0.0000000000000000     
  -1.4133333333333336E-005     0.0000000000000000     
  -1.3933333333333334E-005     0.0000000000000000     
  -1.3733333333333336E-005     0.0000000000000000     
  -1.3533333333333335E-005     0.0000000000000000     
  -1.3333333333333337E-005     0.0000000000000000     
  -1.3133333333333335E-005     0.0000000000000000     
  -1.2933333333333337E-005     0.0000000000000000     
  -1.2733333333333336E-005     0.0000000000000000     
  -1.2533333333333338E-005     0.0000000000000000     
  -1.2333333333333336E-005     0.0000000000000000     
  -1.2133333333333335E-005     0.0000000000000000     
  -1.1933333333333337E-005     0.0000000000000000     
  -1.1733333333333335E-005     0.0000000000000000     
  -1.1533333333333337E-005     0.0000000000000000     
  -1.1333333333333336E-005     0.0000000000000000     
  -1.1133333333333337E-005     0.0000000000000000     
  -1.0933333333333336E-005     0.0000000000000000     
  -1.0733333333333334E-005     0.0000000000000000     
  -1.0533333333333336E-005     0.0000000000000000     
  -1.0333333333333335E-005     0.0000000000000000     
  -1.0133333333333337E-005     0.0000000000000000     
  -9.9333333333333354E-006     0.0000000000000000     
  -9.7333333333333373E-006     0.0000000000000000     
  -9.5333333333333358E-006     0.0000000000000000     
  -9.3333333333333343E-006     0.0000000000000000     
  -9.1333333333333362E-006     0.0000000000000000     
  -8.9333333333333348E-006     0.0000000000000000     
  -8.7333333333333367E-006     0.0000000000000000     
  -8.5333333333333352E-006     0.0000000000000000     
  -8.3333333333333371E-006     0.0000000000000000     
  -8.1333333333333356E-006     0.0000000000000000     
  -7.9333333333333376E-006     0.0000000000000000     
  -7.7333333333333361E-006     0.0000000000000000     
  -7.5333333333333346E-006     0.0000000000000000     
  -7.3333333333333365E-006     0.0000000000000000     
  -7.1333333333333351E-006     0.0000000000000000     
  -6.9333333333333370E-006     0.0000000000000000     
  -6.7333333333333355E-006     0.0000000000000000     
  -6.5333333333333374E-006     0.0000000000000000     
  -6.3333333333333359E-006     0.0000000000000000     
  -6.1333333333333379E-006     0.0000000000000000     
  -5.9333333333333364E-006     0.0000000000000000     
  -5.7333333333333349E-006     0.0000000000000000     
  -5.5333333333333368E-006     0.0000000000000000     
  -5.3333333333333354E-006     0.0000000000000000     
  -5.1333333333333373E-006     0.0000000000000000     
  -4.9333333333333358E-006     0.0000000000000000     
  -4.7333333333333377E-006     0.0000000000000000     
  -4.5333333333333362E-006     0.0000000000000000     
  -4.3333333333333348E-006     0.0000000000000000     
  -4.1333333333333367E-006     0.0000000000000000     
  -3.9333333333333352E-006     0.0000000000000000     
  -3.7333333333333371E-006     0.0000000000000000     
  -3.5333333333333356E-006     0.0000000000000000     
  -3.3333333333333376E-006     0.0000000000000000     
  -3.1333333333333361E-006     0.0000000000000000     
  -2.9333333333333346E-006     0.0000000000000000     
  -2.7333333333333365E-006     0.0000000000000000     
  -2.5333333333333384E-006     0.0000000000000000     
  -2.3333333333333336E-006     0.0000000000000000     
  -2.1333333333333355E-006     0.0000000000000000     
  -1.9333333333333374E-006     0.0000000000000000     
  -1.7333333333333393E-006     0.0000000000000000     
  -1.5333333333333345E-006     0.0000000000000000     
  -1.3333333333333364E-006     0.0000000000000000     
  -1.1333333333333383E-006     0.0000000000000000     
  -9.3333333333333343E-007     0.0000000000000000     
  -7.3333333333333535E-007     0.0000000000000000     
  -5.3333333333333726E-007     0.0000000000000000     
  -3.3333333333333918E-007     0.0000000000000000     
  -1.3333333333333432E-007     0.0000000000000000     
   6.6666666666663770E-008     0.0000000000000000     
   2.6666666666666185E-007     0.0000000000000000     
   4.6666666666666672E-007     0.0000000000000000     
   6.6666666666666480E-007     0.0000000000000000     
   8.6666666666666289E-007     0.0000000000000000     
   1.0666666666666610E-006     0.0000000000000000     
   1.2666666666666658E-006     0.0000000000000000     
   1.4666666666666639E-006     0.0000000000000000     
   1.6666666666666620E-006     0.0000000000000000     
   1.8666666666666669E-006     0.0000000000000000     
   2.0666666666666649E-006     0.0000000000000000     
   2.2666666666666630E-006     0.0000000000000000     
   2.4666666666666611E-006     0.0000000000000000     
   2.6666666666666660E-006     0.0000000000000000     
   2.8666666666666641E-006     0.0000000000000000     
   3.0666666666666622E-006     0.0000000000000000     
   3.2666666666666602E-006     0.0000000000000000     
   3.4666666666666651E-006     0.0000000000000000     
   3.6666666666666632E-006     0.0000000000000000     
   3.8666666666666613E-006     0.0000000000000000     
   4.0666666666666661E-006     0.0000000000000000     
   4.2666666666666642E-006     0.0000000000000000     
   4.4666666666666623E-006     0.0000000000000000     
   4.6666666666666604E-006     0.0000000000000000     
   4.8666666666666652E-006     0.0000000000000000     
   5.0666666666666633E-006     0.0000000000000000     
   5.2666666666666614E-006     0.0000000000000000     
   5.4666666666666663E-006     0.0000000000000000     
   5.6666666666666644E-006     0.0000000000000000     
   5.8666666666666624E-006     0.0000000000000000     
   6.0666666666666605E-006     0.0000000000000000     
   6.2666666666666654E-006     0.0000000000000000     
   6.4666666666666635E-006     0.0000000000000000     
   6.6666666666666616E-006     0.0000000000000000     
   6.8666666666666664E-006     0.0000000000000000     
   7.0666666666666645E-006     0.0000000000000000     
   7.2666666666666626E-006     0.0000000000000000     
   7.4666666666666607E-006     0.0000000000000000     
   7.6666666666666655E-006     0.0000000000000000     
   7.8666666666666636E-006     0.0000000000000000     
   8.0666666666666617E-006     0.0000000000000000     
   8.2666666666666598E-006     0.0000000000000000     
   8.4666666666666647E-006     0.0000000000000000     
   8.6666666666666627E-006     0.0000000000000000     
   8.8666666666666608E-006     0.0000000000000000     
   9.0666666666666657E-006     0.0000000000000000     
   9.2666666666666638E-006     0.0000000000000000     
   9.4666666666666619E-006     0.0000000000000000     
   9.6666666666666599E-006     0.0000000000000000     
   9.8666666666666648E-006     0.0000000000000000     
   1.0066666666666663E-005     0.0000000000000000     
   1.0266666666666661E-005     0.0000000000000000     
   1.0466666666666666E-005     0.0000000000000000     
   1.0666666666666664E-005     0.0000000000000000     
   1.0866666666666662E-005     0.0000000000000000     
   1.1066666666666660E-005     0.0000000000000000     
   1.1266666666666665E-005     0.0000000000000000     
   1.1466666666666663E-005     0.0000000000000000     
   1.1666666666666661E-005     0.0000000000000000     
   1.1866666666666666E-005     0.0000000000000000     
   1.2066666666666664E-005     0.0000000000000000     
   1.2266666666666662E-005     0.0000000000000000     
   1.2466666666666660E-005     0.0000000000000000     
   1.2666666666666665E-005     0.0000000000000000     
   1.2866666666666663E-005     0.0000000000000000     
   1.3066666666666661E-005     0.0000000000000000     
   1.3266666666666666E-005     0.0000000000000000     
   1.3466666666666664E-005     0.0000000000000000     
   1.3666666666666662E-005     0.0000000000000000     
   1.3866666666666660E-005     0.0000000000000000     
   1.4066666666666665E-005     0.0000000000000000     
   1.4266666666666663E-005     0.0000000000000000     
   1.4466666666666661E-005     0.0000000000000000     
   1.4666666666666666E-005     0.0000000000000000     
   1.4866666666666664E-005     0.0000000000000000     
   1.5066666666666662E-005     0.0000000000000000     
   1.5266666666666661E-005     0.0000000000000000     
   1.5466666666666665E-005     0.0000000000000000     
   1.5666666666666663E-005     0.0000000000000000     
   1.5866666666666662E-005     0.0000000000000000     
   1.6066666666666660E-005     0.0000000000000000     
   1.6266666666666665E-005     0.0000000000000000     
   1.6466666666666663E-005     0.0000000000000000     
   1.6666666666666661E-005     0.0000000000000000     
   1.6866666666666666E-005     0.0000000000000000     
   1.7066666666666664E-005     0.0000000000000000     
   1.7266666666666662E-005     0.0000000000000000     
   1.7466666666666660E-005     0.0000000000000000     
   1.7666666666666665E-005     0.0000000000000000     
   1.7866666666666663E-005     0.0000000000000000     
   1.8066666666666661E-005     0.0000000000000000     
   1.8266666666666666E-005     0.0000000000000000     
   1.8466666666666664E-005     0.0000000000000000     
   1.8666666666666662E-005     0.0000000000000000     
   1.8866666666666660E-005     0.0000000000000000     
   1.9066666666666665E-005     0.0000000000000000     
   1.9266666666666663E-005     0.0000000000000000     
   1.9466666666666661E-005     0.0000000000000000     
   1.9666666666666666E-005     0.0000000000000000     
   1.9866666666666664E-005     0.0000000000000000     
   2.0066666666666662E-005     0.0000000000000000     
   2.0266666666666660E-005     0.0000000000000000     
   2.0466666666666665E-005     0.0000000000000000     
   2.0666666666666663E-005     0.0000000000000000     
   2.0866666666666661E-005     0.0000000000000000     
   2.1066666666666659E-005     0.0000000000000000     
   2.1266666666666664E-005     0.0000000000000000     
   2.1466666666666662E-005     0.0000000000000000     
   2.1666666666666660E-005    -1.1241116015105963E-035
   2.1866666666666665E-005    -1.8344710024620850E-035
   2.2066666666666663E-005     9.7305232658457443E-036
   2.2266666666666661E-005     4.7602648187287761E-035
   2.2466666666666659E-005     9.1481137416628583E-035
   2.2666666666666664E-005     1.3541606529807700E-034
   2.2866666666666662E-005     1.9251734494876344E-034
   2.3066666666666660E-005     2.3820720324404299E-034
   2.3266666666666665E-005     2.6245211861286326E-034
   2.3466666666666663E-005     2.5815279394247883E-034
   2.3666666666666661E-005     2.2290561879194657E-034
   2.3866666666666660E-005     1.5400128531248749E-034
   2.4066666666666664E-005     4.9462139053213277E-035
   2.4266666666666662E-005    -8.0547564846324271E-035
   2.4466666666666661E-005    -2.0856121275743086E-034
   2.4666666666666665E-005    -3.4246471299547469E-034
   2.4866666666666663E-005    -4.5796745629257837E-034
   2.5066666666666662E-005    -5.4010292000437791E-034
   2.5266666666666660E-005    -6.2532552575502449E-034
   2.5466666666666665E-005    -6.8294651395790603E-034
   2.5666666666666663E-005    -7.3999793841361570E-034
   2.5866666666666661E-005    -8.0555608487844009E-034
   2.6066666666666666E-005    -8.9492175720275829E-034
   2.6266666666666664E-005    -9.3835094700686465E-034
   2.6466666666666662E-005    -9.2987324501453585E-034
   2.6666666666666660E-005    -7.4708630710231833E-034
   2.6866666666666665E-005    -2.7429529307401993E-034
   2.7066666666666663E-005     6.2212629849311663E-034
   2.7266666666666661E-005     2.0479539721842666E-033
   2.7466666666666666E-005     4.0350577446142482E-033
   2.7666666666666664E-005     6.4889565685694989E-033
   2.7866666666666662E-005     9.1352963073818355E-033
   2.8066666666666667E-005     1.1485961748079934E-032
   2.8266666666666658E-005     1.2842920835258505E-032
   2.8466666666666663E-005     1.2346900422777901E-032
   2.8666666666666668E-005     9.0966871954290775E-033
   2.8866666666666659E-005     2.3249623383624080E-033
   2.9066666666666664E-005    -8.3643160113003906E-033
   2.9266666666666669E-005    -2.2734204742961016E-032
   2.9466666666666660E-005    -3.9671500237144200E-032
   2.9666666666666665E-005    -5.7010306398001876E-032
   2.9866666666666656E-005    -7.1565771157510785E-032
   3.0066666666666661E-005    -7.9249272432225585E-032
   3.0266666666666666E-005    -7.5569587201016054E-032
   3.0466666666666657E-005    -5.6336554178412820E-032
   3.0666666666666662E-005    -1.8606676735239333E-032
   3.0866666666666667E-005     3.8245275880027396E-032
   3.1066666666666658E-005     1.1148979696857038E-031
   3.1266666666666663E-005     1.9426028036109939E-031
   3.1466666666666668E-005     2.7526360783120673E-031
   3.1666666666666659E-005     3.3922190281114215E-031
   3.1866666666666664E-005     3.6822007891202910E-031
   3.2066666666666656E-005     3.4402229260148214E-031
   3.2266666666666660E-005     2.5126043636538192E-031
   3.2466666666666665E-005     8.1201968382981045E-032
   3.2666666666666657E-005    -1.6439790432337492E-031
   3.2866666666666661E-005    -4.7002795192488223E-031
   3.3066666666666666E-005    -8.0451030853328295E-031
   3.3266666666666658E-005    -1.1212149117578137E-030
   3.3466666666666662E-005    -1.3610220599752808E-030
   3.3666666666666667E-005    -1.4583573180425772E-030
   3.3866666666666659E-005    -1.3501806166369689E-030
   3.4066666666666664E-005    -9.8726958743076761E-031
   3.4266666666666668E-005    -3.4655860974247736E-031
   3.4466666666666660E-005     5.5722212618808672E-031
   3.4666666666666665E-005     1.6627171990121280E-030
   3.4866666666666656E-005     2.8581255526119218E-030
   3.5066666666666661E-005     3.9843364094002783E-030
   3.5266666666666666E-005     4.8463382658413180E-030
   3.5466666666666657E-005     5.2332214804822565E-030
   3.5666666666666662E-005     4.9458501632881451E-030
   3.5866666666666667E-005     3.8298708093293458E-030
   3.6066666666666658E-005     1.8104264337127263E-030
   3.6266666666666663E-005    -1.0760866491947174E-030
   3.6466666666666668E-005    -4.6584325786363853E-030
   3.6666666666666659E-005    -8.6201878355969156E-030
   3.6866666666666664E-005    -1.2506892762353490E-029
   3.7066666666666669E-005    -1.5753393749155058E-029
   3.7266666666666660E-005    -1.7731955747803752E-029
   3.7466666666666665E-005    -1.7819304193945558E-029
   3.7666666666666656E-005    -1.5478179864734891E-029
   3.7866666666666661E-005    -1.0346741148706155E-029
   3.8066666666666666E-005    -2.3272980706167468E-030
   3.8266666666666657E-005     8.3353330167090446E-030
   3.8466666666666662E-005     2.0996074479698156E-029
   3.8666666666666667E-005     3.4582566832603909E-029
   3.8866666666666658E-005     4.7608341233161778E-029
   3.9066666666666663E-005     5.8234506228775908E-029
   3.9266666666666668E-005     6.4386606565160351E-029
   3.9466666666666659E-005     6.3930925521787255E-029
   3.9666666666666664E-005     5.4910778460469950E-029
   3.9866666666666655E-005     3.5837975239056114E-029
   4.0066666666666660E-005     6.0267313248014483E-030
   4.0266666666666665E-005    -3.4053402534055825E-029
   4.0466666666666656E-005    -8.2442157664073154E-029
   4.0666666666666661E-005    -1.3542235385563396E-028
   4.0866666666666666E-005    -1.8738844561644659E-028
   4.1066666666666657E-005    -2.3092593367982937E-028
   4.1266666666666662E-005    -2.5717922364261967E-028
   4.1466666666666667E-005    -2.5657433719533625E-028
   4.1666666666666658E-005    -2.1993325518800174E-028
   4.1866666666666663E-005    -1.3996741611670416E-028
   4.2066666666666668E-005    -1.3066549948599192E-029
   4.2266666666666660E-005     1.5878578593687121E-028
   4.2466666666666664E-005     3.6623310488772682E-028
   4.2666666666666656E-005     5.9124912994020952E-028
   4.2866666666666661E-005     8.0672689064661722E-028
   4.3066666666666665E-005     9.7736283927186802E-028
   4.3266666666666657E-005     1.0621828162491235E-027
   4.3466666666666662E-005     1.0189068815092507E-027
   4.3666666666666666E-005     8.1010997918692784E-028
   4.3866666666666658E-005     4.1081472383339700E-028
   4.4066666666666663E-005    -1.8322128692165162E-028
   4.4266666666666667E-005    -9.4764179207358698E-028
   4.4466666666666659E-005    -1.8234878047153344E-027
   4.4666666666666664E-005    -2.7146799160434510E-027
   4.4866666666666655E-005    -3.4905804682967033E-027
   4.5066666666666660E-005    -3.9949322169251441E-027
   4.5266666666666665E-005    -4.0618451861689787E-027
   4.5466666666666656E-005    -3.5385692499069889E-027
   4.5666666666666661E-005    -2.3136042347528313E-027
   4.5866666666666666E-005    -3.4737536183725920E-028
   4.6066666666666657E-005     2.2985935367662772E-027
   4.6266666666666662E-005     5.4390919412818795E-027
   4.6466666666666667E-005     8.7548222373455210E-027
   4.6666666666666658E-005     1.1799577271721790E-026
   4.6866666666666663E-005     1.4029219434991093E-026
   4.7066666666666668E-005     1.4854571320054398E-026
   4.7266666666666659E-005     1.3717184887633339E-026
   4.7466666666666664E-005     1.0183190491716248E-026
   4.7666666666666655E-005     4.0461738942114997E-027
   4.7866666666666660E-005    -4.5738571285582252E-027
   4.8066666666666665E-005    -1.5151485006232779E-026
   4.8266666666666656E-005    -2.6714438673127264E-026
   4.8466666666666661E-005    -3.7856513476670962E-026
   4.8666666666666666E-005    -4.6818293834724402E-026
   4.8866666666666657E-005    -5.1642677471192474E-026
   4.9066666666666662E-005    -5.0403269137013379E-026
   4.9266666666666667E-005    -4.1492382633298338E-026
   4.9466666666666658E-005    -2.3943398343191265E-026
   4.9666666666666663E-005     2.2495768863446721E-027
   4.9866666666666655E-005     3.5861117550305612E-026
   5.0066666666666659E-005     7.4264444138274908E-026
   5.0266666666666664E-005     1.1341268345087826E-025
   5.0466666666666656E-005     1.4801408258018324E-025
   5.0666666666666660E-005     1.7192763671295628E-025
   5.0866666666666665E-005     1.7878201214056672E-025
   5.1066666666666657E-005     1.6279079086370200E-025
   5.1266666666666661E-005     1.1970318356862704E-025
   5.1466666666666666E-005     4.7796355016194105E-026
   5.1666666666666658E-005    -5.1213925406229032E-026
   5.1866666666666662E-005    -1.7148676207455089E-025
   5.2066666666666667E-005    -3.0274161798283018E-025
   5.2266666666666659E-005    -4.3045087692283540E-025
   5.2466666666666664E-005    -5.3664087318502652E-025
   5.2666666666666655E-005    -6.0134856944236415E-025
   5.2866666666666660E-005    -6.0470709544253603E-025
   5.3066666666666665E-005    -5.2954787965953837E-025
   5.3266666666666656E-005    -3.6431179255297425E-025
   5.3466666666666661E-005    -1.0597707777349130E-025
   5.3666666666666666E-005     2.3736287226608563E-025
   5.3866666666666657E-005     6.4467951567479649E-025
   5.4066666666666662E-005     1.0813570196339611E-024
   5.4266666666666667E-005     1.5000696955909144E-024
   5.4466666666666658E-005     1.8434478314286847E-024
   5.4666666666666663E-005     2.0486327222441592E-024
   5.4866666666666668E-005     2.0536204925326454E-024
   5.5066666666666659E-005     1.8050470686386574E-024
   5.5266666666666664E-005     1.2668282764279625E-024
   5.5466666666666655E-005     4.2882020282413042E-025
   5.5666666666666660E-005    -6.8551731632008441E-025
   5.5866666666666665E-005    -2.0135950707083154E-024
   5.6066666666666656E-005    -3.4514510537937484E-024
   5.6266666666666661E-005    -4.8558147638566655E-024
   5.6466666666666666E-005    -6.0512478743108924E-024
   5.6666666666666657E-005    -6.8427112316582283E-024
   5.6866666666666662E-005    -7.0333852233373886E-024
   5.7066666666666667E-005    -6.4469239382907423E-024
   5.7266666666666658E-005    -4.9526624283297439E-024
   5.7466666666666663E-005    -2.4916215078755445E-024
   5.7666666666666654E-005     8.9941088640255287E-025
   5.7866666666666659E-005     5.0688265353585166E-024
   5.8066666666666664E-005     9.7394258305696985E-024
   5.8266666666666655E-005     1.4509001136976245E-023
   5.8466666666666660E-005     1.8864800754793551E-023
   5.8666666666666665E-005     2.2213480587576916E-023
   5.8866666666666656E-005     2.3926828098009968E-023
   5.9066666666666661E-005     2.3401981582826514E-023
   5.9266666666666666E-005     2.0133017722237542E-023
   5.9466666666666657E-005     1.3788935213577747E-023
   5.9666666666666662E-005     4.2912936727364785E-024
   5.9866666666666667E-005    -8.1167010832066266E-024
   6.0066666666666659E-005    -2.2818768826987567E-023
   6.0266666666666663E-005    -3.8801158608803116E-023
   6.0466666666666655E-005    -5.4663946033334485E-023
   6.0666666666666660E-005    -6.8675068654033162E-023
   6.0866666666666664E-005    -7.8871316735068201E-023
   6.1066666666666656E-005    -8.3207060353231168E-023
   6.1266666666666661E-005    -7.9746403292673491E-023
   6.1466666666666665E-005    -6.6889964777939397E-023
   6.1666666666666657E-005    -4.3621313309869718E-023
   6.1866666666666662E-005    -9.7533287151633136E-024
   6.2066666666666666E-005     3.3850030909364479E-023
   6.2266666666666658E-005     8.5104226654077009E-023
   6.2466666666666663E-005     1.4061607194277925E-022
   6.2666666666666668E-005     1.9570516982781717E-022
   6.2866666666666659E-005     2.4455907325266476E-022
   6.3066666666666664E-005     2.8053928419705926E-022
   6.3266666666666655E-005     2.9664484514289420E-022
   6.3466666666666660E-005     2.8612706997866556E-022
   6.3666666666666665E-005     2.4323209561411266E-022
   6.3866666666666656E-005     1.6403112968397070E-022
   6.4066666666666661E-005     4.7278286295300696E-023
   6.4266666666666666E-005    -1.0478077159123022E-022
   6.4466666666666657E-005    -2.8574142428109560E-022
   6.4666666666666662E-005    -4.8461606052124802E-022
   6.4866666666666667E-005    -6.8575787038123115E-022
   6.5066666666666658E-005    -8.6923101349978924E-022
   6.5266666666666663E-005    -1.0117059067925333E-021
   6.5466666666666654E-005    -1.0879297116663712E-021
   6.5666666666666659E-005    -1.0727753024020666E-021
   6.5866666666666664E-005    -9.4381802665860212E-022
   6.6066666666666655E-005    -6.8431944247398943E-022
   6.6266666666666660E-005    -2.8642537299680946E-022
   6.6466666666666665E-005     2.4568970656735096E-022
   6.6666666666666656E-005     8.9306738607324113E-022
   6.6866666666666661E-005     1.6199868825292012E-021
   6.7066666666666666E-005     2.3731763306532347E-021
   6.7266666666666657E-005     3.0826167899076104E-021
   6.7466666666666662E-005     3.6642881367813037E-021
   6.7666666666666667E-005     4.0250907490450097E-021
   6.7866666666666658E-005     4.0700254778967489E-021
   6.8066666666666663E-005     3.7114810525494414E-021
   6.8266666666666655E-005     2.8802299682125712E-021
   6.8466666666666659E-005     1.5374298751163083E-021
   6.8666666666666664E-005    -3.1336054266726329E-022
   6.8866666666666656E-005    -2.6154142343348282E-021
   6.9066666666666660E-005    -5.2507898555024668E-021
   6.9266666666666665E-005    -8.0365790622162103E-021
   6.9466666666666657E-005    -1.0726969464260728E-020
   6.9666666666666661E-005    -1.3022442516122263E-020
   6.9866666666666666E-005    -1.4586979519964588E-020
   7.0066666666666658E-005    -1.5073537819143363E-020
   7.0266666666666662E-005    -1.4157223648826345E-020
   7.0466666666666654E-005    -1.1574614719038773E-020
   7.0666666666666659E-005    -7.1666338582290447E-021
   7.0866666666666664E-005    -9.2130381020584961E-022
   7.1066666666666655E-005     6.9881454072637206E-021
   7.1266666666666660E-005     1.6175046742618493E-020
   7.1466666666666665E-005     2.6026372019277249E-020
   7.1666666666666656E-005     3.5710243305095168E-020
   7.1866666666666661E-005     4.4208082995354095E-020
   7.2066666666666666E-005     5.0373987447726665E-020
   7.2266666666666657E-005     5.3021631029795517E-020
   7.2466666666666662E-005     5.1036119678681221E-020
   7.2666666666666667E-005     4.3504976243509754E-020
   7.2866666666666658E-005     2.9858984140570992E-020
   7.3066666666666663E-005     1.0010551082226678E-020
   7.3266666666666654E-005    -1.5525485395152756E-020
   7.3466666666666659E-005    -4.5545171987932047E-020
   7.3666666666666664E-005    -7.8119531585573206E-020
   7.3866666666666655E-005    -1.1062466650570133E-019
   7.4066666666666660E-005    -1.3984920311644415E-019
   7.4266666666666665E-005    -1.6218530270327214E-019
   7.4466666666666656E-005    -1.7390157937235272E-019
   7.4666666666666661E-005    -1.7148763370037570E-019
   7.4866666666666666E-005    -1.5205055659130173E-019
   7.5066666666666657E-005    -1.1373365068737603E-019
   7.5266666666666662E-005    -5.6119797240021669E-020
   7.5466666666666653E-005     1.9424507841172288E-020