  -3.3333333333333335E-005     0.0000000000000000     
  -3.3133333333333337E-005     0.0000000000000000     
  -3.2933333333333332E-005     0.0000000000000000     
  -3.2733333333333334E-005     0.0000000000000000     
  -3.2533333333333336E-005     0.0000000000000000     
  -3.2333333333333338E-005     0.0000000000000000     
  -3.2133333333333333E-005     0.0000000000000000     
  -3.1933333333333335E-005     0.0000000000000000     
  -3.1733333333333337E-005     0.0000000000000000     
  -3.1533333333333332E-005     0.0000000000000000     
  -3.1333333333333334E-005     0.0000000000000000     
  -3.1133333333333336E-005     0.0000000000000000     
  -3.0933333333333338E-005     0.0000000000000000     
  -3.0733333333333333E-005     0.0000000000000000     
  -3.0533333333333335E-005     0.0000000000000000     
  -3.0333333333333337E-005     0.0000000000000000     
  -3.0133333333333335E-005     0.0000000000000000     
  -2.9933333333333334E-005     0.0000000000000000     
  -2.9733333333333336E-005     0.0000000000000000     
  -2.9533333333333334E-005     0.0000000000000000     
  -2.9333333333333336E-005     0.0000000000000000     
  -2.9133333333333334E-005     0.0000000000000000     
  -2.8933333333333336E-005     0.0000000000000000     
  -2.8733333333333335E-005     0.0000000000000000     
  -2.8533333333333333E-005     0.0000000000000000     
  -2.8333333333333335E-005     0.0000000000000000     
  -2.8133333333333337E-005     0.0000000000000000     
  -2.7933333333333336E-005     0.0000000000000000     
  -2.7733333333333334E-005     0.0000000000000000     
  -2.7533333333333336E-005     0.0000000000000000     
  -2.7333333333333335E-005     0.0000000000000000     
  -2.7133333333333333E-005     0.0000000000000000     
  -2.6933333333333335E-005     0.0000000000000000     
  -2.6733333333333337E-005     0.0000000000000000     
  -2.6533333333333336E-005     0.0000000000000000     
  -2.6333333333333334E-005     0.0000000000000000     
  -2.6133333333333336E-005     0.0000000000000000     
  -2.5933333333333335E-005     0.0000000000000000     
  -2.5733333333333333E-005     0.0000000000000000     
  -2.5533333333333335E-005     0.0000000000000000     
  -2.5333333333333337E-005     0.0000000000000000     
  -2.5133333333333336E-005     0.0000000000000000     
  -2.4933333333333334E-005     0.0000000000000000     
  -2.4733333333333336E-005     0.0000000000000000     
  -2.4533333333333334E-005     0.0000000000000000     
  -2.4333333333333333E-005     0.0000000000000000     
  -2.4133333333333335E-005     0.0000000000000000     
  -2.3933333333333337E-005     0.0000000000000000     
  -2.3733333333333335E-005     0.0000000000000000     
  -2.3533333333333334E-005     0.0000000000000000     
  -2.3333333333333336E-005     0.0000000000000000     
  -2.3133333333333338E-005     0.0000000000000000     
  -2.2933333333333336E-005     0.0000000000000000     
  -2.2733333333333335E-005     0.0000000000000000     
  -2.2533333333333337E-005     0.0000000000000000     
  -2.2333333333333335E-005     0.0000000000000000     
  -2.2133333333333334E-005     0.0000000000000000     
  -2.1933333333333336E-005     0.0000000000000000     
  -2.1733333333333338E-005     0.0000000000000000     
  -2.1533333333333336E-005     0.0000000000000000     
  -2.1333333333333335E-005     0.0000000000000000     
  -2.1133333333333337E-005     0.0000000000000000     
  -2.0933333333333335E-005     0.0000000000000000     
  -2.0733333333333334E-005     0.0000000000000000     
  -2.0533333333333336E-005     0.0000000000000000     
  -2.0333333333333337E-005     0.0000000000000000     
  -2.0133333333333336E-005     0.0000000000000000     
  -1.9933333333333334E-005     0.0000000000000000     
  -1.9733333333333336E-005     0.0000000000000000     
  -1.9533333333333335E-005     0.0000000000000000     
  -1.9333333333333333E-005     0.0000000000000000     
  -1.9133333333333335E-005     0.0000000000000000     
  -1.8933333333333337E-005     0.0000000000000000     
  -1.8733333333333336E-005     0.0000000000000000     
  -1.8533333333333334E-005     0.0000000000000000     
  -1.8333333333333336E-005     0.0000000000000000     
  -1.8133333333333335E-005     0.0000000000000000     
  -1.7933333333333337E-005     0.0000000000000000     
  -1.7733333333333335E-005     0.0000000000000000     
  -1.7533333333333337E-005     0.0000000000000000     
  -1.7333333333333336E-005     0.0000000000000000     
  -1.7133333333333334E-005     0.0000000000000000     
  -1.6933333333333336E-005     0.0000000000000000     
  -1.6733333333333335E-005     0.0000000000000000     
  -1.6533333333333337E-005     0.0000000000000000     
  -1.6333333333333335E-005     0.0000000000000000     
  -1.6133333333333337E-005     0.0000000000000000     
  -1.5933333333333336E-005     0.0000000000000000     
  -1.5733333333333334E-005     0.0000000000000000     
  -1.5533333333333336E-005     0.0000000000000000     
  -1.5333333333333334E-005     0.0000000000000000     
  -1.5133333333333336E-005     0.0000000000000000     
  -1.4933333333333335E-005     0.0000000000000000     
  -1.4733333333333337E-005     0.0000000000000000     
  -1.4533333333333335E-005     0.0000000000000000     
  -1.4333333333333337E-005     0.0000000000000000     
  -1.4133333333333336E-005     0.0000000000000000     
  -1.3933333333333334E-005     0.0000000000000000     
  -1.3733333333333336E-005     0.0000000000000000     
  -1.3533333333333335E-005     0.0000000000000000     
  -1.3333333333333337E-005     0.0000000000000000     
  -1.3133333333333335E-005     0.0000000000000000     
  -1.2933333333333337E-005     0.0000000000000000     
  -1.2733333333333336E-005     0.0000000000000000     
  -1.2533333333333338E-005     0.0000000000000000     
  -1.2333333333333336E-005     0.0000000000000000     
  -1.2133333333333335E-005     0.0000000000000000     
  -1.1933333333333337E-005     0.0000000000000000     
  -1.1733333333333335E-005     0.0000000000000000     
  -1.1533333333333337E-005     0.0000000000000000     
  -1.1333333333333336E-005     0.0000000000000000     
  -1.1133333333333337E-005     0.0000000000000000     
  -1.0933333333333336E-005     0.0000000000000000     
  -1.0733333333333334E-005     0.0000000000000000     
  -1.0533333333333336E-005     0.0000000000000000     
  -1.0333333333333335E-005     0.0000000000000000     
  -1.0133333333333337E-005     0.0000000000000000     
  -9.9333333333333354E-006     0.0000000000000000     
  -9.7333333333333373E-006     0.0000000000000000     
  -9.5333333333333358E-006     0.0000000000000000     
  -9.3333333333333343E-006     0.0000000000000000     
  -9.1333333333333362E-006     0.0000000000000000     
  -8.9333333333333348E-006     0.0000000000000000     
  -8.7333333333333367E-006     0.0000000000000000     
  -8.5333333333333352E-006     0.0000000000000000     
  -8.3333333333333371E-006     0.0000000000000000     
  -8.1333333333333356E-006     0.0000000000000000     
  -7.9333333333333376E-006     0.0000000000000000     
  -7.7333333333333361E-006     0.0000000000000000     
  -7.5333333333333346E-006     0.0000000000000000     
  -7.3333333333333365E-006     0.0000000000000000     
  -7.1333333333333351E-006     0.0000000000000000     
  -6.9333333333333370E-006     0.0000000000000000     
  -6.7333333333333355E-006     0.0000000000000000     
  -6.5333333333333374E-006     0.0000000000000000     
  -6.3333333333333359E-006     0.0000000000000000     
  -6.1333333333333379E-006     0.0000000000000000     
  -5.9333333333333364E-006     0.0000000000000000     
  -5.7333333333333349E-006     0.0000000000000000     
  -5.5333333333333368E-006     0.0000000000000000     
  -5.3333333333333354E-006     0.0000000000000000     
  -5.1333333333333373E-006     0.0000000000000000     
  -4.9333333333333358E-006     0.0000000000000000     
  -4.7333333333333377E-006     0.0000000000000000     
  -4.5333333333333362E-006     0.0000000000000000     
  -4.3333333333333348E-006     0.0000000000000000     
  -4.1333333333333367E-006     0.0000000000000000     
  -3.9333333333333352E-006     0.0000000000000000     
  -3.7333333333333371E-006     0.0000000000000000     
  -3.5333333333333356E-006     0.0000000000000000     
  -3.3333333333333376E-006     0.0000000000000000     
  -3.1333333333333361E-006     0.0000000000000000     
  -2.9333333333333346E-006     0.0000000000000000     
  -2.7333333333333365E-006     0.0000000000000000     
  -2.5333333333333384E-006     0.0000000000000000     
  -2.3333333333333336E-006     0.0000000000000000     
  -2.1333333333333355E-006     0.0000000000000000     
  -1.9333333333333374E-006     0.0000000000000000     
  -1.7333333333333393E-006     0.0000000000000000     
  -1.5333333333333345E-006     0.0000000000000000     
  -1.3333333333333364E-006     0.0000000000000000     
  -1.1333333333333383E-006     0.0000000000000000     
  -9.3333333333333343E-007     0.0000000000000000     
  -7.3333333333333535E-007     0.0000000000000000     
  -5.3333333333333726E-007     0.0000000000000000     
  -3.3333333333333918E-007     0.0000000000000000     
  -1.3333333333333432E-007     0.0000000000000000     
   6.6666666666663770E-008     0.0000000000000000     
   2.6666666666666185E-007     0.0000000000000000     
   4.6666666666666672E-007     0.0000000000000000     
   6.6666666666666480E-007     0.0000000000000000     
   8.6666666666666289E-007     0.0000000000000000     
   1.0666666666666610E-006     0.0000000000000000     
   1.2666666666666658E-006     0.0000000000000000     
   1.4666666666666639E-006     0.0000000000000000     
   1.6666666666666620E-006     0.0000000000000000     
   1.8666666666666669E-006     0.0000000000000000     
   2.0666666666666649E-006     0.0000000000000000     
   2.2666666666666630E-006     0.0000000000000000     
   2.4666666666666611E-006     0.0000000000000000     
   2.6666666666666660E-006     0.0000000000000000     
   2.8666666666666641E-006     0.0000000000000000     
   3.0666666666666622E-006     0.0000000000000000     
   3.2666666666666602E-006     0.0000000000000000     
   3.4666666666666651E-006     0.0000000000000000     
   3.6666666666666632E-006     0.0000000000000000     
   3.8666666666666613E-006     0.0000000000000000     
   4.0666666666666661E-006     0.0000000000000000     
   4.2666666666666642E-006     0.0000000000000000     
   4.4666666666666623E-006     0.0000000000000000     
   4.6666666666666604E-006     0.0000000000000000     
   4.8666666666666652E-006     0.0000000000000000     
   5.0666666666666633E-006     0.0000000000000000     
   5.2666666666666614E-006     0.0000000000000000     
   5.4666666666666663E-006     0.0000000000000000     
   5.6666666666666644E-006     0.0000000000000000     
   5.8666666666666624E-006     0.0000000000000000     
   6.0666666666666605E-006     0.0000000000000000     
   6.2666666666666654E-006     0.0000000000000000     
   6.4666666666666635E-006     0.0000000000000000     
   6.6666666666666616E-006     0.0000000000000000     
   6.8666666666666664E-006     0.0000000000000000     
   7.0666666666666645E-006     0.0000000000000000     
   7.2666666666666626E-006     0.0000000000000000     
   7.4666666666666607E-006     0.0000000000000000     
   7.6666666666666655E-006     0.0000000000000000     
   7.8666666666666636E-006     0.0000000000000000     
   8.0666666666666617E-006     0.0000000000000000     
   8.2666666666666598E-006     0.0000000000000000     
   8.4666666666666647E-006     0.0000000000000000     
   8.6666666666666627E-006     0.0000000000000000     
   8.8666666666666608E-006     0.0000000000000000     
   9.0666666666666657E-006     0.0000000000000000     
   9.2666666666666638E-006     0.0000000000000000     
   9.4666666666666619E-006     0.0000000000000000     
   9.6666666666666599E-006     0.0000000000000000     
   9.8666666666666648E-006     0.0000000000000000     
   1.0066666666666663E-005     0.0000000000000000     
   1.0266666666666661E-005     0.0000000000000000     
   1.0466666666666666E-005     0.0000000000000000     
   1.0666666666666664E-005     0.0000000000000000     
   1.0866666666666662E-005     0.0000000000000000     
   1.1066666666666660E-005     0.0000000000000000     
   1.1266666666666665E-005     0.0000000000000000     
   1.1466666666666663E-005     0.0000000000000000     
   1.1666666666666661E-005     0.0000000000000000     
   1.1866666666666666E-005     0.0000000000000000     
   1.2066666666666664E-005     0.0000000000000000     
   1.2266666666666662E-005     0.0000000000000000     
   1.2466666666666660E-005     0.0000000000000000     
   1.2666666666666665E-005     0.0000000000000000     
   1.2866666666666663E-005     0.0000000000000000     
   1.3066666666666661E-005     0.0000000000000000     
   1.3266666666666666E-005     0.0000000000000000     
   1.3466666666666664E-005     0.0000000000000000     
   1.3666666666666662E-005     0.0000000000000000     
   1.3866666666666660E-005     0.0000000000000000     
   1.4066666666666665E-005     0.0000000000000000     
   1.4266666666666663E-005     0.0000000000000000     
   1.4466666666666661E-005     0.0000000000000000     
   1.4666666666666666E-005     0.0000000000000000     
   1.4866666666666664E-005     0.0000000000000000     
   1.5066666666666662E-005     0.0000000000000000     
   1.5266666666666661E-005     0.0000000000000000     
   1.5466666666666665E-005     0.0000000000000000     
   1.5666666666666663E-005     0.0000000000000000     
   1.5866666666666662E-005     0.0000000000000000     
   1.6066666666666660E-005     0.0000000000000000     
   1.6266666666666665E-005     0.0000000000000000     
   1.6466666666666663E-005     0.0000000000000000     
   1.6666666666666661E-005     0.0000000000000000     
   1.6866666666666666E-005     0.0000000000000000     
   1.7066666666666664E-005     0.0000000000000000     
   1.7266666666666662E-005     0.0000000000000000     
   1.7466666666666660E-005     0.0000000000000000     
   1.7666666666666665E-005     0.0000000000000000     
   1.7866666666666663E-005     0.0000000000000000     
   1.8066666666666661E-005     0.0000000000000000     
   1.8266666666666666E-005     0.0000000000000000     
   1.8466666666666664E-005     0.0000000000000000     
   1.8666666666666662E-005     0.0000000000000000     
   1.8866666666666660E-005     0.0000000000000000     
   1.9066666666666665E-005     0.0000000000000000     
   1.9266666666666663E-005     0.0000000000000000     
   1.9466666666666661E-005     0.0000000000000000     
   1.9666666666666666E-005     0.0000000000000000     
   1.9866666666666664E-005     0.0000000000000000     
   2.0066666666666662E-005     0.0000000000000000     
   2.0266666666666660E-005     0.0000000000000000     
   2.0466666666666665E-005     0.0000000000000000     
   2.0666666666666663E-005     0.0000000000000000     
   2.0866666666666661E-005     0.0000000000000000     
   2.1066666666666659E-005     0.0000000000000000     
   2.1266666666666664E-005     0.0000000000000000     
   2.1466666666666662E-005     0.0000000000000000     
   2.1666666666666660E-005     1.9523171809912742E-035
   2.1866666666666665E-005     3.6989257204479031E-035
   2.2066666666666663E-005     2.1447353608233426E-035
   2.2266666666666661E-005     4.8208160329585576E-037
   2.2466666666666659E-005    -2.3808195971629828E-035
   2.2666666666666664E-005    -4.8129717928471767E-035
   2.2866666666666662E-005    -1.0657386499158769E-034
   2.3066666666666660E-005    -1.5959933609010122E-034
   2.3266666666666665E-005    -2.0881644656012796E-034
   2.3466666666666663E-005    -2.4721911231752283E-034
   2.3666666666666661E-005    -2.6918434924746520E-034
   2.3866666666666660E-005    -2.6821801023914274E-034
   2.4066666666666664E-005    -2.3790788840319006E-034
   2.4266666666666662E-005    -1.7883793122136476E-034
   2.4466666666666661E-005    -1.0797206042059310E-034
   2.4666666666666665E-005    -5.8901769797654515E-036
   2.4866666666666663E-005     1.2309160396043034E-034
   2.5066666666666662E-005     2.6064194914809310E-034
   2.5266666666666660E-005     4.2902857616750873E-034
   2.5466666666666665E-005     6.1398292362455100E-034
   2.5666666666666663E-005     8.3337066894179552E-034
   2.5866666666666661E-005     1.0933976416898666E-033
   2.6066666666666666E-005     1.3985525772499746E-033
   2.6266666666666664E-005     1.6872285513794927E-033
   2.6466666666666662E-005     1.9503567169973230E-033
   2.6666666666666660E-005     2.0490324882511460E-033
   2.6866666666666665E-005     1.8332776633264155E-033
   2.7066666666666663E-005     1.1486825185414812E-033
   2.7266666666666661E-005    -1.6979104430328575E-034
   2.7466666666666666E-005    -2.2232352409132395E-033
   2.7666666666666664E-005    -5.0504280916774468E-033
   2.7866666666666662E-005    -8.5035650720987988E-033
   2.8066666666666667E-005    -1.2185633618104622E-032
   2.8266666666666658E-005    -1.5466584553359510E-032
   2.8466666666666663E-005    -1.7438020822802954E-032
   2.8666666666666668E-005    -1.7080019610156211E-032
   2.8866666666666659E-005    -1.3277349751859836E-032
   2.9066666666666664E-005    -5.1094338673268947E-033
   2.9266666666666669E-005     7.8871843236695627E-033
   2.9466666666666660E-005     2.5409112667918181E-032
   2.9666666666666665E-005     4.6130289212567784E-032
   2.9866666666666656E-005     6.7532232739344975E-032
   3.0066666666666661E-005     8.5866900081804030E-032
   3.0266666666666666E-005     9.6390783621241248E-032
   3.0466666666666657E-005     9.3859503473539305E-032
   3.0666666666666662E-005     7.3358464694704069E-032
   3.0866666666666667E-005     3.1357566648404022E-032
   3.1066666666666658E-005    -3.3064772358933755E-032
   3.1266666666666663E-005    -1.1710659109544347E-031
   3.1466666666666668E-005    -2.1331390355840838E-031
   3.1666666666666659E-005    -3.0923781608833354E-031
   3.1866666666666664E-005    -3.8787627226851309E-031
   3.2066666666666656E-005    -4.2910090617162475E-031
   3.2266666666666660E-005    -4.1214336572598453E-031
   3.2466666666666665E-005    -3.1903852374820138E-031
   3.2666666666666657E-005    -1.3872410853121796E-031
   3.2866666666666661E-005     1.2871180013325860E-031
   3.3066666666666666E-005     4.6836213537044495E-031
   3.3266666666666658E-005     8.4820155276238606E-031
   3.3466666666666662E-005     1.2189833159835011E-030
   3.3666666666666667E-005     1.5170027312051011E-030
   3.3866666666666659E-005     1.6701019366426378E-030
   3.4066666666666664E-005     1.6068479273480541E-030
   3.4266666666666668E-005     1.2682677504129128E-030
   3.4466666666666660E-005     6.2094854315237894E-031
   3.4666666666666665E-005    -3.3024361801888362E-031
   3.4866666666666656E-005    -1.5319052724266338E-030
   3.5066666666666661E-005    -2.8765445146542784E-030
   3.5266666666666666E-005    -4.2037626484840924E-030
   3.5466666666666657E-005    -5.3096455404043570E-030
   3.5666666666666662E-005    -5.9649522317787283E-030
   3.5866666666666667E-005    -5.9415337512030025E-030
   3.6066666666666658E-005    -5.0451318519213071E-030
   3.6266666666666663E-005    -3.1514629268144226E-030
   3.6466666666666668E-005    -2.4145081845833485E-031
   3.6666666666666659E-005     3.5691638417519988E-030
   3.6866666666666664E-005     8.0107731959950309E-030
   3.7066666666666669E-005     1.2655911591800453E-029
   3.7266666666666660E-005     1.6933871443708448E-029
   3.7466666666666665E-005     2.0166073905305710E-029
   3.7666666666666656E-005     2.1622555416483019E-029
   3.7866666666666661E-005     2.0598041936238538E-029
   3.8066666666666666E-005     1.6504079111759669E-029
   3.8266666666666657E-005     8.9716264160972836E-030
   3.8466666666666662E-005    -2.0433970008253590E-030
   3.8666666666666667E-005    -1.6161344831828270E-029
   3.8866666666666658E-005    -3.2498701604980305E-029
   3.9066666666666663E-005    -4.9620652144820319E-029
   3.9266666666666668E-005    -6.5542477495408656E-029
   3.9466666666666659E-005    -7.7797019268267732E-029
   3.9666666666666664E-005    -8.3585160974880521E-029
   3.9866666666666655E-005    -8.0022750301154222E-029
   4.0066666666666660E-005    -6.4490378077976366E-029
   4.0266666666666665E-005    -3.5080016481645903E-029
   4.0466666666666656E-005     8.8854312709729560E-030
   4.0666666666666661E-005     6.6306162885137881E-029
   4.0866666666666666E-005     1.3380536714845074E-028
   4.1066666666666657E-005     2.0537204517634330E-028
   4.1266666666666662E-005     2.7226269770694732E-028
   4.1466666666666667E-005     3.2328392823704357E-028
   4.1666666666666658E-005     3.4556474694829215E-028
   4.1866666666666663E-005     3.2588814663371969E-028
   4.2066666666666668E-005     2.5258462887079226E-028
   4.2266666666666660E-005     1.1789380339334734E-028
   4.2466666666666664E-005    -7.9416503665847578E-029
   4.2666666666666656E-005    -3.3150918984353258E-028
   4.2866666666666661E-005    -6.1946453325621723E-028
   4.3066666666666665E-005    -9.1232033319002230E-028
   4.3266666666666657E-005    -1.1677043253091057E-027
   4.3466666666666662E-005    -1.3345230807845810E-027
   4.3666666666666666E-005    -1.3579848556636035E-027
   4.3866666666666658E-005    -1.1869444617500314E-027
   4.4066666666666663E-005    -7.8316063406811168E-028
   4.4266666666666667E-005    -1.3160496811286402E-028
   4.4466666666666659E-005     7.4950086754056431E-028
   4.4666666666666664E-005     1.8006341422162521E-027
   4.4866666666666655E-005     2.9168461304567402E-027
   4.5066666666666660E-005     3.9494902850733161E-027
   4.5266666666666665E-005     4.7153856312654767E-027
   4.5466666666666656E-005     5.0143034401439865E-027
   4.5666666666666661E-005     4.6545917266409493E-027
   4.5866666666666666E-005     3.4854193612317344E-027
   4.6066666666666657E-005     1.4326028928359482E-027
   4.6266666666666662E-005    -1.4664883783529777E-027
   4.6466666666666667E-005    -5.0346366381248491E-027
   4.6666666666666658E-005    -8.9394280151188819E-027
   4.6866666666666663E-005    -1.2697012092371643E-026
   4.7066666666666668E-005    -1.5699991395138219E-026
   4.7266666666666659E-005    -1.7272192719987651E-026
   4.7466666666666664E-005    -1.6749797318896235E-026
   4.7666666666666655E-005    -1.3584169380466268E-026
   4.7866666666666660E-005    -7.4571930409475997E-027
   4.8066666666666665E-005     1.6044843403562342E-027
   4.8266666666666656E-005     1.3133506395711522E-026
   4.8466666666666661E-005     2.6163333049168878E-026
   4.8666666666666666E-005     3.9226204038240054E-026
   4.8866666666666657E-005     5.0423446719854735E-026
   4.9066666666666662E-005     5.7577878951312795E-026
   4.9266666666666667E-005     5.8468854202929173E-026
   4.9466666666666658E-005     5.1139109961237388E-026
   4.9666666666666663E-005     3.4249101860901851E-026
   4.9866666666666655E-005     7.4418942238413652E-027
   5.0066666666666659E-005    -2.8330010399580341E-026
   5.0266666666666664E-005    -7.0571810892838640E-026
   5.0466666666666656E-005    -1.1516524888539153E-025
   5.0666666666666660E-005    -1.5649113256388166E-025
   5.0866666666666665E-005    -1.8779329352042278E-025
   5.1066666666666657E-005    -2.0179880398742649E-025
   5.1266666666666661E-005    -1.9157828512152813E-025
   5.1466666666666666E-005    -1.5159352661167194E-025
   5.1666666666666658E-005    -7.8840663227316930E-026
   5.1866666666666662E-005     2.6039830095183125E-026
   5.2066666666666667E-005     1.5784397971252912E-025
   5.2266666666666659E-005     3.0625002755499405E-025
   5.2466666666666664E-005     4.5579983742836794E-025
   5.2666666666666655E-005     5.8656092803973709E-025
   5.2866666666666660E-005     6.7556208891142155E-025
   5.3066666666666665E-005     6.9901891723197491E-025
   5.3266666666666656E-005     6.3526500311285606E-025
   5.3466666666666661E-005     4.6819249712274400E-025
   5.3666666666666666E-005     1.9088524616438818E-025
   5.3866666666666657E-005    -1.9097685263700697E-025
   5.4066666666666662E-005    -6.5644665797513887E-025
   5.4266666666666667E-005    -1.1679097534710658E-024
   5.4466666666666658E-005    -1.6714704348489413E-024
   5.4666666666666663E-005    -2.0995422551930498E-024
   5.4866666666666668E-005    -2.3758833857355911E-024
   5.5066666666666659E-005    -2.4230683119204807E-024
   5.5266666666666664E-005    -2.1720726906170116E-024
   5.5466666666666655E-005    -1.5732931453201129E-024
   5.5666666666666660E-005    -6.0797248655208525E-025
   5.5866666666666665E-005     7.0131662252985083E-025
   5.6066666666666656E-005     2.2826897249754965E-024
   5.6266666666666661E-005     4.0111123673073213E-024
   5.6466666666666666E-005     5.7102327713147116E-024
   5.6666666666666657E-005     7.1610734049000825E-024
   5.6866666666666662E-005     8.1182156961446510E-024
   5.7066666666666667E-005     8.3333104548667382E-024
   5.7266666666666658E-005     7.5848250284967482E-024
   5.7466666666666663E-005     5.7118834627588866E-024
   5.7666666666666654E-005     2.6490325878403819E-024
   5.7866666666666659E-005    -1.5420704251219178E-024
   5.8066666666666664E-005    -6.6486356717557550E-024
   5.8266666666666655E-005    -1.2295103238379642E-023
   5.8466666666666660E-005    -1.7948183825971996E-023
   5.8666666666666665E-005    -2.2941850060863771E-023
   5.8866666666666656E-005    -2.6523908081569531E-023
   5.9066666666666661E-005    -2.7923530343161617E-023
   5.9266666666666666E-005    -2.6436555935812597E-023
   5.9466666666666657E-005    -2.1522574118679008E-023
   5.9666666666666662E-005    -1.2905103343977178E-023
   5.9866666666666667E-005    -6.6402948481896269E-025
   6.0066666666666659E-005     1.4691937980896998E-023
   6.0266666666666663E-005     3.2185266186640369E-023
   6.0466666666666655E-005     5.0373363124273611E-023
   6.0666666666666660E-005     6.7404781715573871E-023
   6.0866666666666664E-005     8.1132324618063698E-023
   6.1066666666666656E-005     8.9282242267406466E-023
   6.1266666666666661E-005     8.9672147813864624E-023
   6.1466666666666665E-005     8.0464146809567018E-023
   6.1666666666666657E-005     6.0432677573936766E-023
   6.1866666666666662E-005     2.9222213118765243E-023
   6.2066666666666666E-005    -1.2434057931390702E-023
   6.2266666666666658E-005    -6.2563895749918061E-023
   6.2466666666666663E-005    -1.1790161103784543E-022
   6.2666666666666668E-005    -1.7395215997239224E-022
   6.2866666666666659E-005    -2.2518795632535139E-022
   6.3066666666666664E-005    -2.6538298166658210E-022
   6.3266666666666655E-005    -2.8807529135729731E-022
   6.3466666666666660E-005    -2.8713761973091541E-022
   6.3666666666666665E-005    -2.5742164594979785E-022
   6.3866666666666656E-005    -1.9543156762233755E-022
   6.4066666666666661E-005    -9.9973181866661981E-023
   6.4266666666666666E-005     2.7280081746321805E-023
   6.4466666666666657E-005     1.8136406984590816E-022
   6.4666666666666662E-005     3.5380106152219878E-022
   6.4866666666666667E-005     5.3262762458238786E-022
   6.5066666666666658E-005     7.0271340686433639E-022
   6.5266666666666663E-005     8.4639711274291772E-022
   6.5466666666666654E-005     9.4445042804732522E-022
   6.5666666666666659E-005     9.7736165452604790E-022
   6.5866666666666664E-005     9.2691090730241573E-022
   6.6066666666666655E-005     7.7798558042921355E-022
   6.6266666666666660E-005     5.2055822943734915E-022
   6.6466666666666665E-005     1.5172341019313386E-022
   6.6666666666666656E-005    -3.2234292945266769E-022
   6.6866666666666661E-005    -8.8466996804805070E-022
   6.7066666666666666E-005    -1.5062236989090176E-021
   6.7266666666666657E-005    -2.1453112959599253E-021
   6.7466666666666662E-005    -2.7479067176498373E-021
   6.7666666666666667E-005    -3.2491400006109339E-021
   6.7866666666666658E-005    -3.5761820924344690E-021
   6.8066666666666663E-005    -3.6526857977792538E-021
   6.8266666666666655E-005    -3.4048624054790100E-021
   6.8466666666666659E-005    -2.7691167513887550E-021
   6.8666666666666664E-005    -1.7009876756353719E-021
   6.8866666666666656E-005    -1.8490440185789316E-022
   6.9066666666666660E-005     1.7559782227052424E-021
   6.9266666666666665E-005     4.0508654222823493E-021
   6.9466666666666657E-005     6.5745482347418877E-021
   6.9666666666666661E-005     9.1441650166954780E-021
   6.9866666666666666E-005     1.1520931181960222E-020
   7.0066666666666658E-005     1.3418187854711365E-020
   7.0266666666666662E-005     1.4516811339565364E-020
   7.0466666666666654E-005     1.4488551489419314E-020
   7.0666666666666659E-005     1.3027114794113480E-020
   7.0866666666666664E-005     9.8858964179433574E-021
   7.1066666666666655E-005     4.9202290149013136E-021
   7.1266666666666660E-005    -1.8691814034351404E-021
   7.1466666666666665E-005    -1.0295993824836395E-020
   7.1666666666666656E-005    -1.9956391437392421E-020
   7.1866666666666661E-005    -3.0211492328489293E-020
   7.2066666666666666E-005    -4.0189807600633411E-020
   7.2266666666666657E-005    -4.8814936169997471E-020
   7.2466666666666662E-005    -5.4862359924318891E-020
   7.2666666666666667E-005    -5.7046905147980223E-020
   7.2866666666666658E-005    -5.4139630251146290E-020
   7.3066666666666663E-005    -4.5109296272730619E-020
   7.3266666666666654E-005    -2.9279725067236592E-020
   7.3466666666666659E-005    -6.4903123293742928E-021
   7.3666666666666664E-005     2.2756376808251679E-020
   7.3866666666666655E-005     5.7178827530985360E-020
   7.4066666666666660E-005     9.4652558509732495E-020
   7.4266666666666665E-005     1.3221731166760314E-019
   7.4466666666666656E-005     1.6617187381607731E-019
   7.4666666666666661E-005     1.9226784532908265E-019
   7.4866666666666666E-005     2.0600573849054577E-019
   7.5066666666666657E-005     2.0302704818004524E-019
   7.5266666666666662E-005     1.7958446527695687E-019
   7.5466666666666653E-005     1.3306041550694781E-019