  -3.3333333333333335E-005     0.0000000000000000     
  -3.3133333333333337E-005     0.0000000000000000     
  -3.2933333333333332E-005     0.0000000000000000     
  -3.2733333333333334E-005     0.0000000000000000     
  -3.2533333333333336E-005     0.0000000000000000     
  -3.2333333333333338E-005     0.0000000000000000     
  -3.2133333333333333E-005     0.0000000000000000     
  -3.1933333333333335E-005     0.0000000000000000     
  -3.1733333333333337E-005     0.0000000000000000     
  -3.1533333333333332E-005     0.0000000000000000     
  -3.1333333333333334E-005     0.0000000000000000     
  -3.1133333333333336E-005     0.0000000000000000     
  -3.0933333333333338E-005     0.0000000000000000     
  -3.0733333333333333E-005     0.0000000000000000     
  -3.0533333333333335E-005     0.0000000000000000     
  -3.0333333333333337E-005     0.0000000000000000     
  -3.0133333333333335E-005     0.0000000000000000     
  -2.9933333333333334E-005     0.0000000000000000     
  -2.9733333333333336E-005     0.0000000000000000     
  -2.9533333333333334E-005     0.0000000000000000     
  -2.9333333333333336E-005     0.0000000000000000     
  -2.9133333333333334E-005     0.0000000000000000     
  -2.8933333333333336E-005     0.0000000000000000     
  -2.8733333333333335E-005     0.0000000000000000     
  -2.8533333333333333E-005     0.0000000000000000     
  -2.8333333333333335E-005     0.0000000000000000     
  -2.8133333333333337E-005     0.0000000000000000     
  -2.7933333333333336E-005     0.0000000000000000     
  -2.7733333333333334E-005     0.0000000000000000     
  -2.7533333333333336E-005     0.0000000000000000     
  -2.7333333333333335E-005     0.0000000000000000     
  -2.7133333333333333E-005     0.0000000000000000     
  -2.6933333333333335E-005     0.0000000000000000     
  -2.6733333333333337E-005     0.0000000000000000     
  -2.6533333333333336E-005     0.0000000000000000     
  -2.6333333333333334E-005     0.0000000000000000     
  -2.6133333333333336E-005     0.0000000000000000     
  -2.5933333333333335E-005     0.0000000000000000     
  -2.5733333333333333E-005     0.0000000000000000     
  -2.5533333333333335E-005     0.0000000000000000     
  -2.5333333333333337E-005     0.0000000000000000     
  -2.5133333333333336E-005     0.0000000000000000     
  -2.4933333333333334E-005     0.0000000000000000     
  -2.4733333333333336E-005     0.0000000000000000     
  -2.4533333333333334E-005     0.0000000000000000     
  -2.4333333333333333E-005     0.0000000000000000     
  -2.4133333333333335E-005     0.0000000000000000     
  -2.3933333333333337E-005     0.0000000000000000     
  -2.3733333333333335E-005     0.0000000000000000     
  -2.3533333333333334E-005     0.0000000000000000     
  -2.3333333333333336E-005     0.0000000000000000     
  -2.3133333333333338E-005     0.0000000000000000     
  -2.2933333333333336E-005     0.0000000000000000     
  -2.2733333333333335E-005     0.0000000000000000     
  -2.2533333333333337E-005     0.0000000000000000     
  -2.2333333333333335E-005     0.0000000000000000     
  -2.2133333333333334E-005     0.0000000000000000     
  -2.1933333333333336E-005     0.0000000000000000     
  -2.1733333333333338E-005     0.0000000000000000     
  -2.1533333333333336E-005     0.0000000000000000     
  -2.1333333333333335E-005     0.0000000000000000     
  -2.1133333333333337E-005     0.0000000000000000     
  -2.0933333333333335E-005     0.0000000000000000     
  -2.0733333333333334E-005     0.0000000000000000     
  -2.0533333333333336E-005     0.0000000000000000     
  -2.0333333333333337E-005     0.0000000000000000     
  -2.0133333333333336E-005     0.0000000000000000     
  -1.9933333333333334E-005     0.0000000000000000     
  -1.9733333333333336E-005     0.0000000000000000     
  -1.9533333333333335E-005     0.0000000000000000     
  -1.9333333333333333E-005     0.0000000000000000     
  -1.9133333333333335E-005     0.0000000000000000     
  -1.8933333333333337E-005     0.0000000000000000     
  -1.8733333333333336E-005     0.0000000000000000     
  -1.8533333333333334E-005     0.0000000000000000     
  -1.8333333333333336E-005     0.0000000000000000     
  -1.8133333333333335E-005     0.0000000000000000     
  -1.7933333333333337E-005     0.0000000000000000     
  -1.7733333333333335E-005     0.0000000000000000     
  -1.7533333333333337E-005     0.0000000000000000     
  -1.7333333333333336E-005     0.0000000000000000     
  -1.7133333333333334E-005     0.0000000000000000     
  -1.6933333333333336E-005     0.0000000000000000     
  -1.6733333333333335E-005     0.0000000000000000     
  -1.6533333333333337E-005     0.0000000000000000     
  -1.6333333333333335E-005     0.0000000000000000     
  -1.6133333333333337E-005     0.0000000000000000     
  -1.5933333333333336E-005     0.0000000000000000     
  -1.5733333333333334E-005     0.0000000000000000     
  -1.5533333333333336E-005     0.0000000000000000     
  -1.5333333333333334E-005     0.0000000000000000     
  -1.5133333333333336E-005     0.0000000000000000     
  -1.4933333333333335E-005     0.0000000000000000     
  -1.4733333333333337E-005     0.0000000000000000     
  -1.4533333333333335E-005     0.0000000000000000     
  -1.4333333333333337E-005     0.0000000000000000     
  -1.4133333333333336E-005     0.0000000000000000     
  -1.3933333333333334E-005     0.0000000000000000     
  -1.3733333333333336E-005     0.0000000000000000     
  -1.3533333333333335E-005     0.0000000000000000     
  -1.3333333333333337E-005     0.0000000000000000     
  -1.3133333333333335E-005     0.0000000000000000     
  -1.2933333333333337E-005     0.0000000000000000     
  -1.2733333333333336E-005     0.0000000000000000     
  -1.2533333333333338E-005     0.0000000000000000     
  -1.2333333333333336E-005     0.0000000000000000     
  -1.2133333333333335E-005     0.0000000000000000     
  -1.1933333333333337E-005     0.0000000000000000     
  -1.1733333333333335E-005     0.0000000000000000     
  -1.1533333333333337E-005     0.0000000000000000     
  -1.1333333333333336E-005     0.0000000000000000     
  -1.1133333333333337E-005     0.0000000000000000     
  -1.0933333333333336E-005     0.0000000000000000     
  -1.0733333333333334E-005     0.0000000000000000     
  -1.0533333333333336E-005     0.0000000000000000     
  -1.0333333333333335E-005     0.0000000000000000     
  -1.0133333333333337E-005     0.0000000000000000     
  -9.9333333333333354E-006     0.0000000000000000     
  -9.7333333333333373E-006     0.0000000000000000     
  -9.5333333333333358E-006     0.0000000000000000     
  -9.3333333333333343E-006     0.0000000000000000     
  -9.1333333333333362E-006     0.0000000000000000     
  -8.9333333333333348E-006     0.0000000000000000     
  -8.7333333333333367E-006     0.0000000000000000     
  -8.5333333333333352E-006     0.0000000000000000     
  -8.3333333333333371E-006     0.0000000000000000     
  -8.1333333333333356E-006     0.0000000000000000     
  -7.9333333333333376E-006     0.0000000000000000     
  -7.7333333333333361E-006     0.0000000000000000     
  -7.5333333333333346E-006     0.0000000000000000     
  -7.3333333333333365E-006     0.0000000000000000     
  -7.1333333333333351E-006     0.0000000000000000     
  -6.9333333333333370E-006     0.0000000000000000     
  -6.7333333333333355E-006     0.0000000000000000     
  -6.5333333333333374E-006     0.0000000000000000     
  -6.3333333333333359E-006     0.0000000000000000     
  -6.1333333333333379E-006     0.0000000000000000     
  -5.9333333333333364E-006     0.0000000000000000     
  -5.7333333333333349E-006     0.0000000000000000     
  -5.5333333333333368E-006     0.0000000000000000     
  -5.3333333333333354E-006     0.0000000000000000     
  -5.1333333333333373E-006     0.0000000000000000     
  -4.9333333333333358E-006     0.0000000000000000     
  -4.7333333333333377E-006     0.0000000000000000     
  -4.5333333333333362E-006     0.0000000000000000     
  -4.3333333333333348E-006     0.0000000000000000     
  -4.1333333333333367E-006     0.0000000000000000     
  -3.9333333333333352E-006     0.0000000000000000     
  -3.7333333333333371E-006     0.0000000000000000     
  -3.5333333333333356E-006     0.0000000000000000     
  -3.3333333333333376E-006     0.0000000000000000     
  -3.1333333333333361E-006     0.0000000000000000     
  -2.9333333333333346E-006     0.0000000000000000     
  -2.7333333333333365E-006     0.0000000000000000     
  -2.5333333333333384E-006     0.0000000000000000     
  -2.3333333333333336E-006     0.0000000000000000     
  -2.1333333333333355E-006     0.0000000000000000     
  -1.9333333333333374E-006     0.0000000000000000     
  -1.7333333333333393E-006     0.0000000000000000     
  -1.5333333333333345E-006     0.0000000000000000     
  -1.3333333333333364E-006     0.0000000000000000     
  -1.1333333333333383E-006     0.0000000000000000     
  -9.3333333333333343E-007     0.0000000000000000     
  -7.3333333333333535E-007     0.0000000000000000     
  -5.3333333333333726E-007     0.0000000000000000     
  -3.3333333333333918E-007     0.0000000000000000     
  -1.3333333333333432E-007     0.0000000000000000     
   6.6666666666663770E-008     0.0000000000000000     
   2.6666666666666185E-007     0.0000000000000000     
   4.6666666666666672E-007     0.0000000000000000     
   6.6666666666666480E-007     0.0000000000000000     
   8.6666666666666289E-007     0.0000000000000000     
   1.0666666666666610E-006     0.0000000000000000     
   1.2666666666666658E-006     0.0000000000000000     
   1.4666666666666639E-006     0.0000000000000000     
   1.6666666666666620E-006     0.0000000000000000     
   1.8666666666666669E-006     0.0000000000000000     
   2.0666666666666649E-006     0.0000000000000000     
   2.2666666666666630E-006     0.0000000000000000     
   2.4666666666666611E-006     0.0000000000000000     
   2.6666666666666660E-006     0.0000000000000000     
   2.8666666666666641E-006     0.0000000000000000     
   3.0666666666666622E-006     0.0000000000000000     
   3.2666666666666602E-006     0.0000000000000000     
   3.4666666666666651E-006     0.0000000000000000     
   3.6666666666666632E-006     0.0000000000000000     
   3.8666666666666613E-006     0.0000000000000000     
   4.0666666666666661E-006     0.0000000000000000     
   4.2666666666666642E-006     0.0000000000000000     
   4.4666666666666623E-006     0.0000000000000000     
   4.6666666666666604E-006     0.0000000000000000     
   4.8666666666666652E-006     0.0000000000000000     
   5.0666666666666633E-006     0.0000000000000000     
   5.2666666666666614E-006     0.0000000000000000     
   5.4666666666666663E-006     0.0000000000000000     
   5.6666666666666644E-006     0.0000000000000000     
   5.8666666666666624E-006     0.0000000000000000     
   6.0666666666666605E-006     0.0000000000000000     
   6.2666666666666654E-006     0.0000000000000000     
   6.4666666666666635E-006     0.0000000000000000     
   6.6666666666666616E-006     0.0000000000000000     
   6.8666666666666664E-006     0.0000000000000000     
   7.0666666666666645E-006     0.0000000000000000     
   7.2666666666666626E-006     0.0000000000000000     
   7.4666666666666607E-006     0.0000000000000000     
   7.6666666666666655E-006     0.0000000000000000     
   7.8666666666666636E-006     0.0000000000000000     
   8.0666666666666617E-006     0.0000000000000000     
   8.2666666666666598E-006     0.0000000000000000     
   8.4666666666666647E-006     0.0000000000000000     
   8.6666666666666627E-006     0.0000000000000000     
   8.8666666666666608E-006     0.0000000000000000     
   9.0666666666666657E-006     0.0000000000000000     
   9.2666666666666638E-006     0.0000000000000000     
   9.4666666666666619E-006     0.0000000000000000     
   9.6666666666666599E-006     0.0000000000000000     
   9.8666666666666648E-006     0.0000000000000000     
   1.0066666666666663E-005     0.0000000000000000     
   1.0266666666666661E-005     0.0000000000000000     
   1.0466666666666666E-005     0.0000000000000000     
   1.0666666666666664E-005     0.0000000000000000     
   1.0866666666666662E-005     0.0000000000000000     
   1.1066666666666660E-005     0.0000000000000000     
   1.1266666666666665E-005     0.0000000000000000     
   1.1466666666666663E-005     0.0000000000000000     
   1.1666666666666661E-005     0.0000000000000000     
   1.1866666666666666E-005     0.0000000000000000     
   1.2066666666666664E-005     0.0000000000000000     
   1.2266666666666662E-005     0.0000000000000000     
   1.2466666666666660E-005     0.0000000000000000     
   1.2666666666666665E-005     0.0000000000000000     
   1.2866666666666663E-005     0.0000000000000000     
   1.3066666666666661E-005     0.0000000000000000     
   1.3266666666666666E-005     0.0000000000000000     
   1.3466666666666664E-005     0.0000000000000000     
   1.3666666666666662E-005     0.0000000000000000     
   1.3866666666666660E-005     0.0000000000000000     
   1.4066666666666665E-005     0.0000000000000000     
   1.4266666666666663E-005     0.0000000000000000     
   1.4466666666666661E-005     0.0000000000000000     
   1.4666666666666666E-005     0.0000000000000000     
   1.4866666666666664E-005     0.0000000000000000     
   1.5066666666666662E-005     0.0000000000000000     
   1.5266666666666661E-005     0.0000000000000000     
   1.5466666666666665E-005     0.0000000000000000     
   1.5666666666666663E-005     0.0000000000000000     
   1.5866666666666662E-005     0.0000000000000000     
   1.6066666666666660E-005     0.0000000000000000     
   1.6266666666666665E-005     0.0000000000000000     
   1.6466666666666663E-005     0.0000000000000000     
   1.6666666666666661E-005     0.0000000000000000     
   1.6866666666666666E-005     0.0000000000000000     
   1.7066666666666664E-005     0.0000000000000000     
   1.7266666666666662E-005     0.0000000000000000     
   1.7466666666666660E-005     0.0000000000000000     
   1.7666666666666665E-005     0.0000000000000000     
   1.7866666666666663E-005     0.0000000000000000     
   1.8066666666666661E-005     0.0000000000000000     
   1.8266666666666666E-005     2.0437506502250445E-038
   1.8466666666666664E-005     4.9813946355173614E-038
   1.8666666666666662E-005     8.2050845552935317E-038
   1.8866666666666660E-005     1.0785170982351185E-037
   1.9066666666666665E-005     1.0785170982351185E-037
   1.9266666666666663E-005     7.0722485323222203E-038
   1.9466666666666661E-005     0.0000000000000000     
   1.9666666666666666E-005    -1.0649535380353486E-037
   1.9866666666666664E-005    -2.2228719066870571E-037
   2.0066666666666662E-005    -3.4737552180590026E-037
   2.0266666666666660E-005    -4.4099880575506479E-037
   2.0466666666666665E-005    -4.7169199532816927E-037
   2.0666666666666663E-005    -4.1371092839569761E-037
   2.0866666666666661E-005    -2.4846268367592870E-037
   2.1066666666666659E-005     1.4041150742381100E-038
   2.1266666666666664E-005     3.5663783560578215E-037
   2.1466666666666662E-005     7.4500187559179361E-037
   2.1666666666666660E-005     1.1219240333569001E-036
   2.1866666666666665E-005     1.4187533967288539E-036
   2.2066666666666663E-005     1.5553969919482989E-036
   2.2266666666666661E-005     1.4238159181376648E-036
   2.2466666666666659E-005     9.9122831112641419E-037
   2.2666666666666664E-005     2.0394381261751156E-037
   2.2866666666666662E-005    -8.1217743347847384E-037
   2.3066666666666660E-005    -1.9427171430511023E-036
   2.3266666666666665E-005    -3.0274895031063143E-036
   2.3466666666666663E-005    -3.8147740464567678E-036
   2.3666666666666661E-005    -4.0986178347987409E-036
   2.3866666666666660E-005    -3.6559050952867666E-036
   2.4066666666666664E-005    -2.2291943859918872E-036
   2.4266666666666662E-005     6.7095605401499710E-038
   2.4466666666666661E-005     2.8668261724371636E-036
   2.4666666666666665E-005     5.8496258684931885E-036
   2.4866666666666663E-005     8.5578220055433244E-036
   2.5066666666666662E-005     1.0259136273844093E-035
   2.5266666666666660E-005     9.9924546025790511E-036
   2.5466666666666665E-005     7.5975914926449958E-036
   2.5666666666666663E-005     2.5939902673661125E-036
   2.5866666666666661E-005    -4.4233736192142854E-036
   2.6066666666666666E-005    -1.2539154073578884E-035
   2.6266666666666664E-005    -2.0288795731804150E-035
   2.6466666666666662E-005    -2.5841604613193422E-035
   2.6666666666666660E-005    -2.7733025533189369E-035
   2.6866666666666665E-005    -2.4498504742164290E-035
   2.7066666666666663E-005    -1.7144923750135146E-035
   2.7266666666666661E-005    -5.0315384082946800E-036
   2.7466666666666666E-005     1.0743233460009482E-035
   2.7666666666666664E-005     3.1643949191729113E-035
   2.7866666666666662E-005     5.4009218673076445E-035
   2.8066666666666667E-005     7.6374485284564522E-035
   2.8266666666666658E-005     9.5810647266656450E-035
   2.8466666666666663E-005     1.0499492582670633E-034
   2.8666666666666668E-005     9.7336821199276537E-035
   2.8866666666666659E-005     7.0639502042460718E-035
   2.9066666666666664E-005     1.6115640118774145E-035
   2.9266666666666669E-005    -6.1841104757829702E-035
   2.9466666666666660E-005    -1.5737249749982523E-034
   2.9666666666666665E-005    -2.5583298339177989E-034
   2.9866666666666656E-005    -3.4550616687498312E-034
   3.0066666666666661E-005    -4.0295914203764360E-034
   3.0266666666666666E-005    -4.1501089786944911E-034
   3.0466666666666657E-005    -3.4504758632491819E-034
   3.0666666666666662E-005    -1.8721097518638451E-034
   3.0866666666666667E-005     4.6782479720397016E-035
   3.1066666666666658E-005     3.5107456626677484E-034
   3.1266666666666663E-005     7.0223242732856497E-034
   3.1466666666666668E-005     1.0358155917373561E-033
   3.1666666666666659E-005     1.3196038970903535E-033
   3.1866666666666664E-005     1.3954253949348027E-033
   3.2066666666666656E-005     1.1900523891797407E-033
   3.2266666666666660E-005     7.2691771686033685E-034
   3.2466666666666665E-005    -1.1114299087024728E-034
   3.2666666666666657E-005    -1.3709954999178462E-033
   3.2866666666666661E-005    -2.8886094918587947E-033
   3.3066666666666666E-005    -4.4530892497055778E-033
   3.3266666666666658E-005    -5.6602176228764316E-033
   3.3466666666666662E-005    -6.0471951386129289E-033
   3.3666666666666667E-005    -5.2156632918107048E-033
   3.3866666666666659E-005    -2.9312927937631059E-033
   3.4066666666666664E-005     9.4651328590538691E-034
   3.4266666666666668E-005     5.8553658481602552E-033
   3.4466666666666660E-005     1.1139143894813327E-032
   3.4666666666666665E-005     1.5813666892855053E-032
   3.4866666666666656E-005     1.8719009914139788E-032
   3.5066666666666661E-005     1.8343749505687096E-032
   3.5266666666666666E-005     1.4406691255732964E-032
   3.5466666666666657E-005     6.3454463407493599E-033
   3.5666666666666662E-005    -5.4650594793590230E-033
   3.5866666666666667E-005    -2.0274975052124786E-032
   3.6066666666666658E-005    -3.5647280550444534E-032
   3.6266666666666663E-005    -4.8395102423353577E-032
   3.6466666666666668E-005    -5.4347394392894853E-032
   3.6666666666666659E-005    -5.1488921270113280E-032
   3.6866666666666664E-005    -3.7007738937368708E-032
   3.7066666666666669E-005    -9.0292204318476016E-033
   3.7266666666666660E-005     3.0197077482969981E-032
   3.7466666666666665E-005     7.3172636670254328E-032
   3.7666666666666656E-005     1.1239893605443985E-031
   3.7866666666666661E-005     1.3662819034875831E-031
   3.8066666666666666E-005     1.3836189170195558E-031
   3.8266666666666657E-005     1.1010150287541874E-031
   3.8466666666666662E-005     5.3346731316870364E-032
   3.8666666666666667E-005    -3.0402715525966955E-032
   3.8866666666666658E-005    -1.2614979844069792E-031
   3.9066666666666663E-005    -2.1439836762670299E-031
   3.9266666666666668E-005    -2.6365461370158195E-031
   3.9466666666666659E-005    -2.5770301527370766E-031
   3.9666666666666664E-005    -1.8576440669547482E-031
   3.9866666666666655E-005    -5.0838238127159111E-032
   4.0066666666666660E-005     1.3807729276467800E-031
   4.0266666666666665E-005     3.3899044797346524E-031
   4.0466666666666656E-005     5.0391073023140208E-031
   4.0666666666666661E-005     5.9684521956786406E-031
   4.0866666666666666E-005     5.8180096074739623E-031
   4.1066666666666657E-005     4.3628247135853843E-031
   4.1266666666666662E-005     1.6478881496974087E-031
   4.1466666666666667E-005    -2.3867883820988678E-031
   4.1666666666666658E-005    -7.2612989687299591E-031
   4.1866666666666663E-005    -1.2135809320262180E-030
   4.2066666666666668E-005    -1.5210675906702446E-030
   4.2266666666666660E-005    -1.5886014338368502E-030
   4.2466666666666664E-005    -1.3681921053175564E-030
   4.2666666666666656E-005    -9.4382303410573167E-031
   4.2866666666666661E-005    -2.7950126496592108E-031
   4.3066666666666665E-005     5.7678272834396185E-031
   4.3266666666666657E-005     1.4330666981439578E-030
   4.3466666666666662E-005     2.0973884907936554E-030
   4.3666666666666666E-005     2.4737671117574536E-030
   4.3866666666666658E-005     2.3462449706819447E-030
   4.4066666666666663E-005     1.6668318053981983E-030
   4.4266666666666667E-005     5.0751315021893206E-031
   4.4466666666666659E-005    -7.4778654651570927E-031
   4.4666666666666664E-005    -1.9071052957345235E-030
   4.4866666666666655E-005    -2.7784808262476644E-030
   4.5066666666666660E-005    -3.2659318143811125E-030
   4.5266666666666665E-005    -3.1774966472218579E-030
   4.5466666666666656E-005    -2.5611655869388310E-030
   4.5666666666666661E-005    -1.6568912609303566E-030
   4.5866666666666666E-005    -5.6065475777158393E-031
   4.6066666666666657E-005     1.5165753214591421E-031
   4.6266666666666662E-005    -2.8780295871973332E-031
   4.6466666666666667E-005    -3.4333918932433229E-031
   4.6666666666666658E-005     7.5289736085421441E-031
   4.6866666666666663E-005     3.1928691040650753E-030
   4.7066666666666668E-005     7.5524620545416309E-030
   4.7266666666666659E-005     1.2295978607002399E-029
   4.7466666666666664E-005     1.6655571557478954E-029
   4.7666666666666655E-005     1.7943770425867121E-029
   4.7866666666666660E-005     1.6160574459850515E-029
   4.8066666666666665E-005     1.1305985164061906E-029
   4.8266666666666656E-005     3.3800014100267150E-030
   4.8466666666666661E-005    -1.1456618464470061E-029
   4.8666666666666666E-005    -3.3203874835586616E-029
   4.8866666666666657E-005    -5.6486833137803863E-029
   4.9066666666666662E-005    -7.9769785421490035E-029
   4.9266666666666667E-005    -9.9981348889302510E-029
   4.9466666666666658E-005    -1.1865721794917814E-028
   4.9666666666666663E-005    -1.2811890250583944E-028
   4.9866666666666655E-005    -1.2222360687194581E-028
   5.0066666666666659E-005    -9.2525014813110107E-029
   5.0266666666666664E-005    -3.5183872253896985E-029
   5.0466666666666656E-005     6.2085391115516034E-029
   5.0666666666666660E-005     2.0235418517586141E-028
   5.0866666666666665E-005     3.6105134222410435E-028
   5.1066666666666657E-005     4.9517734059710911E-028
   5.1266666666666661E-005     5.5558986294439931E-028
   5.1466666666666666E-005     4.9007526328493566E-028
   5.1666666666666658E-005     2.8788355437400762E-028
   5.1866666666666662E-005    -7.4020655833313240E-029
   5.2066666666666667E-005    -5.4649504396801947E-028
   5.2266666666666659E-005    -1.0558261881711762E-027
   5.2466666666666664E-005    -1.4668726976733802E-027
   5.2666666666666655E-005    -1.6936354448889249E-027
   5.2866666666666660E-005    -1.6378300840063492E-027
   5.3066666666666665E-005    -1.2380285016704390E-027
   5.3266666666666656E-005    -5.0651630129293757E-028
   5.3466666666666661E-005     4.7070738954044848E-028
   5.3666666666666666E-005     1.4970733977243109E-027
   5.3866666666666657E-005     2.4251550600967122E-027
   5.4066666666666662E-005     3.1075249431237373E-027
   5.4266666666666667E-005     3.2001870179450459E-027
   5.4466666666666658E-005     2.6785704629231402E-027
   5.4666666666666663E-005     1.3706769265901099E-027
   5.4866666666666668E-005    -7.7263586025627293E-028
   5.5066666666666659E-005    -3.3582294069604458E-027
   5.5266666666666664E-005    -5.9438230981093645E-027
   5.5466666666666655E-005    -7.5465700570627670E-027
   5.5666666666666660E-005    -7.4784791890649452E-027
   5.5866666666666665E-005    -5.8378341658518795E-027
   5.6066666666666656E-005    -2.5263509305016007E-027
   5.6266666666666661E-005     2.4958988965929275E-027
   5.6466666666666666E-005     8.6975635697269108E-027
   5.6666666666666657E-005     1.4899228242860894E-026
   5.6866666666666662E-005     2.0314616608759233E-026
   5.7066666666666667E-005     2.3371173741834707E-026
   5.7266666666666658E-005     2.2889483255303904E-026
   5.7466666666666663E-005     1.8869546689910780E-026
   5.7666666666666654E-005     1.0918226277223503E-026
   5.7866666666666659E-005    -4.1777002723455706E-028
   5.8066666666666664E-005    -1.5095443526339021E-026
   5.8266666666666655E-005    -3.0559396028981052E-026
   5.8466666666666660E-005    -4.4450792835663883E-026
   5.8666666666666665E-005    -5.2051976102973650E-026
   5.8866666666666656E-005    -5.3362939667934530E-026
   5.9066666666666661E-005    -4.6811138619795014E-026
   5.9266666666666666E-005    -3.3182842332442946E-026
   5.9466666666666657E-005    -1.0610647561385084E-026
   5.9666666666666662E-005     1.9431178676573209E-026
   5.9866666666666667E-005     5.5763227698368298E-026
   6.0066666666666659E-005     9.5240378867618053E-026
   6.0266666666666663E-005     1.2842731957898265E-025
   6.0466666666666655E-005     1.4903382088564948E-025
   6.0666666666666660E-005     1.5076968465568503E-025
   6.0866666666666664E-005     1.2262702255811886E-025
   6.1066666666666656E-005     5.6743066898362659E-026
   6.1266666666666661E-005    -4.0591968784210507E-026
   6.1466666666666665E-005    -1.6308787095022757E-025
   6.1666666666666657E-005    -2.7929356573984740E-025
   6.1866666666666662E-005    -3.5775798545620466E-025
   6.2066666666666666E-005    -3.7961046791076479E-025
   6.2266666666666658E-005    -3.3856078415671517E-025
   6.2466666666666663E-005    -2.4718936743577774E-025
   6.2666666666666668E-005    -9.6060917468564346E-026
   6.2866666666666659E-005     9.5953934371269568E-026
   6.3066666666666664E-005     2.8167856342726669E-025
   6.3266666666666655E-005     4.0450102627465405E-025
   6.3466666666666660E-005     4.2668002318826582E-025
   6.3666666666666665E-005     3.4821557882000527E-025
   6.3866666666666656E-005     1.6910770549582405E-025
   6.4066666666666661E-005    -9.8063163542555893E-026
   6.4266666666666666E-005    -4.1555580252567856E-025
   6.4466666666666657E-005    -6.6778747026001586E-025
   6.4666666666666662E-005    -8.0679526347075890E-025
   6.4866666666666667E-005    -6.9419444115086950E-025
   6.5066666666666658E-005    -2.2934153736657208E-025
   6.5266666666666663E-005     5.3744171491524557E-025
   6.5466666666666654E-005     1.6061554143021966E-024
   6.5666666666666659E-005     2.7251907973522289E-024
   6.5866666666666664E-005     3.6177780369246200E-024
   6.6066666666666655E-005     4.1832745545541127E-024
   6.6266666666666660E-005     4.3461972084485031E-024
   6.6466666666666665E-005     4.0059023354587891E-024
   6.6666666666666656E-005     3.0617468640816478E-024
   6.6866666666666661E-005     1.8156611921184061E-024
   6.7066666666666666E-005     9.7214918667504040E-025
   6.7266666666666657E-005     3.2992413775112922E-025
   6.7466666666666662E-005    -1.0370575001213371E-026
   6.7666666666666667E-005     1.5255195563366054E-025
   6.7866666666666658E-005     1.0451394293991329E-024
   6.8066666666666663E-005     2.5415877603970171E-024
   6.8266666666666655E-005     5.6483308560820188E-024
   6.8466666666666659E-005     1.0767942678796854E-023
   6.8666666666666664E-005     1.5887554501511689E-023
   6.8866666666666656E-005     2.1007167113087429E-023
   6.9066666666666660E-005     2.5321631997192964E-023
   6.9266666666666665E-005     2.7623226773762082E-023
   6.9466666666666657E-005     2.6704232218172191E-023
   6.9666666666666661E-005     2.2061429225817377E-023
   6.9866666666666666E-005     1.5003184628773758E-023
   7.0066666666666658E-005     7.1397915153990300E-024
   7.0266666666666662E-005    -2.3338968557008817E-024
   7.0466666666666654E-005    -1.4223028014780955E-023
   7.0666666666666659E-005    -2.3696715794235188E-023
   7.0866666666666664E-005    -2.9949814241530412E-023
   7.1066666666666655E-005    -3.3384896431540824E-023
   7.1266666666666660E-005    -3.3096170184786313E-023
   7.1466666666666665E-005    -2.5963690621117777E-023
   7.1666666666666656E-005    -1.5610620147568421E-023
   7.1866666666666661E-005    -2.0369583697077935E-024
   7.2066666666666666E-005     1.3146998074232339E-023
   7.2266666666666657E-005     2.1889773092841285E-023
   7.2466666666666662E-005     2.0970780114973204E-023
   7.2666666666666667E-005     1.0390015985184477E-023
   7.2866666666666658E-005    -1.0657668601716914E-023
   7.3066666666666663E-005    -3.8951679580406526E-023
   7.3266666666666654E-005    -7.2076580079360989E-023
   7.3466666666666659E-005    -9.8760292447666571E-023
   7.3666666666666664E-005    -1.1578223839721694E-022
   7.3866666666666655E-005    -1.1348064519836963E-022
   7.4066666666666660E-005    -9.8296682049111803E-023
   7.4266666666666665E-005    -5.7348004242581906E-023
   7.4466666666666656E-005     1.2585985441988122E-023
   7.4666666666666661E-005     9.8622923365075005E-023
   7.4866666666666666E-005     1.8465986759904913E-022
   7.5066666666666657E-005     2.4493207193220222E-022
   7.5266666666666662E-005     2.4079248331128789E-022
   7.5466666666666653E-005     1.7224110173630614E-022