  -3.3333333333333335E-005     0.0000000000000000     
  -3.3133333333333337E-005     0.0000000000000000     
  -3.2933333333333332E-005     0.0000000000000000     
  -3.2733333333333334E-005     0.0000000000000000     
  -3.2533333333333336E-005     0.0000000000000000     
  -3.2333333333333338E-005     0.0000000000000000     
  -3.2133333333333333E-005     0.0000000000000000     
  -3.1933333333333335E-005     0.0000000000000000     
  -3.1733333333333337E-005     0.0000000000000000     
  -3.1533333333333332E-005     0.0000000000000000     
  -3.1333333333333334E-005     0.0000000000000000     
  -3.1133333333333336E-005     0.0000000000000000     
  -3.0933333333333338E-005     0.0000000000000000     
  -3.0733333333333333E-005     0.0000000000000000     
  -3.0533333333333335E-005     0.0000000000000000     
  -3.0333333333333337E-005     0.0000000000000000     
  -3.0133333333333335E-005     0.0000000000000000     
  -2.9933333333333334E-005     0.0000000000000000     
  -2.9733333333333336E-005     0.0000000000000000     
  -2.9533333333333334E-005     0.0000000000000000     
  -2.9333333333333336E-005     0.0000000000000000     
  -2.9133333333333334E-005     0.0000000000000000     
  -2.8933333333333336E-005     0.0000000000000000     
  -2.8733333333333335E-005     0.0000000000000000     
  -2.8533333333333333E-005     0.0000000000000000     
  -2.8333333333333335E-005     0.0000000000000000     
  -2.8133333333333337E-005     0.0000000000000000     
  -2.7933333333333336E-005     0.0000000000000000     
  -2.7733333333333334E-005     0.0000000000000000     
  -2.7533333333333336E-005     0.0000000000000000     
  -2.7333333333333335E-005     0.0000000000000000     
  -2.7133333333333333E-005     0.0000000000000000     
  -2.6933333333333335E-005     0.0000000000000000     
  -2.6733333333333337E-005     0.0000000000000000     
  -2.6533333333333336E-005     0.0000000000000000     
  -2.6333333333333334E-005     0.0000000000000000     
  -2.6133333333333336E-005     0.0000000000000000     
  -2.5933333333333335E-005     0.0000000000000000     
  -2.5733333333333333E-005     0.0000000000000000     
  -2.5533333333333335E-005     0.0000000000000000     
  -2.5333333333333337E-005     0.0000000000000000     
  -2.5133333333333336E-005     0.0000000000000000     
  -2.4933333333333334E-005     0.0000000000000000     
  -2.4733333333333336E-005     0.0000000000000000     
  -2.4533333333333334E-005     0.0000000000000000     
  -2.4333333333333333E-005     0.0000000000000000     
  -2.4133333333333335E-005     0.0000000000000000     
  -2.3933333333333337E-005     0.0000000000000000     
  -2.3733333333333335E-005     0.0000000000000000     
  -2.3533333333333334E-005     0.0000000000000000     
  -2.3333333333333336E-005     0.0000000000000000     
  -2.3133333333333338E-005     0.0000000000000000     
  -2.2933333333333336E-005     0.0000000000000000     
  -2.2733333333333335E-005     0.0000000000000000     
  -2.2533333333333337E-005     0.0000000000000000     
  -2.2333333333333335E-005     0.0000000000000000     
  -2.2133333333333334E-005     0.0000000000000000     
  -2.1933333333333336E-005     0.0000000000000000     
  -2.1733333333333338E-005     0.0000000000000000     
  -2.1533333333333336E-005     0.0000000000000000     
  -2.1333333333333335E-005     0.0000000000000000     
  -2.1133333333333337E-005     0.0000000000000000     
  -2.0933333333333335E-005     0.0000000000000000     
  -2.0733333333333334E-005     0.0000000000000000     
  -2.0533333333333336E-005     0.0000000000000000     
  -2.0333333333333337E-005     0.0000000000000000     
  -2.0133333333333336E-005     0.0000000000000000     
  -1.9933333333333334E-005     0.0000000000000000     
  -1.9733333333333336E-005     0.0000000000000000     
  -1.9533333333333335E-005     0.0000000000000000     
  -1.9333333333333333E-005     0.0000000000000000     
  -1.9133333333333335E-005     0.0000000000000000     
  -1.8933333333333337E-005     0.0000000000000000     
  -1.8733333333333336E-005     0.0000000000000000     
  -1.8533333333333334E-005     0.0000000000000000     
  -1.8333333333333336E-005     0.0000000000000000     
  -1.8133333333333335E-005     0.0000000000000000     
  -1.7933333333333337E-005     0.0000000000000000     
  -1.7733333333333335E-005     0.0000000000000000     
  -1.7533333333333337E-005     0.0000000000000000     
  -1.7333333333333336E-005     0.0000000000000000     
  -1.7133333333333334E-005     0.0000000000000000     
  -1.6933333333333336E-005     0.0000000000000000     
  -1.6733333333333335E-005     0.0000000000000000     
  -1.6533333333333337E-005     0.0000000000000000     
  -1.6333333333333335E-005     0.0000000000000000     
  -1.6133333333333337E-005     0.0000000000000000     
  -1.5933333333333336E-005     0.0000000000000000     
  -1.5733333333333334E-005     0.0000000000000000     
  -1.5533333333333336E-005     0.0000000000000000     
  -1.5333333333333334E-005     0.0000000000000000     
  -1.5133333333333336E-005     0.0000000000000000     
  -1.4933333333333335E-005     0.0000000000000000     
  -1.4733333333333337E-005     0.0000000000000000     
  -1.4533333333333335E-005     0.0000000000000000     
  -1.4333333333333337E-005     0.0000000000000000     
  -1.4133333333333336E-005     0.0000000000000000     
  -1.3933333333333334E-005     0.0000000000000000     
  -1.3733333333333336E-005     0.0000000000000000     
  -1.3533333333333335E-005     0.0000000000000000     
  -1.3333333333333337E-005     0.0000000000000000     
  -1.3133333333333335E-005     0.0000000000000000     
  -1.2933333333333337E-005     0.0000000000000000     
  -1.2733333333333336E-005     0.0000000000000000     
  -1.2533333333333338E-005     0.0000000000000000     
  -1.2333333333333336E-005     0.0000000000000000     
  -1.2133333333333335E-005     0.0000000000000000     
  -1.1933333333333337E-005     0.0000000000000000     
  -1.1733333333333335E-005     0.0000000000000000     
  -1.1533333333333337E-005     0.0000000000000000     
  -1.1333333333333336E-005     0.0000000000000000     
  -1.1133333333333337E-005     0.0000000000000000     
  -1.0933333333333336E-005     0.0000000000000000     
  -1.0733333333333334E-005     0.0000000000000000     
  -1.0533333333333336E-005     0.0000000000000000     
  -1.0333333333333335E-005     0.0000000000000000     
  -1.0133333333333337E-005     0.0000000000000000     
  -9.9333333333333354E-006     0.0000000000000000     
  -9.7333333333333373E-006     0.0000000000000000     
  -9.5333333333333358E-006     0.0000000000000000     
  -9.3333333333333343E-006     0.0000000000000000     
  -9.1333333333333362E-006     0.0000000000000000     
  -8.9333333333333348E-006     0.0000000000000000     
  -8.7333333333333367E-006     0.0000000000000000     
  -8.5333333333333352E-006     0.0000000000000000     
  -8.3333333333333371E-006     0.0000000000000000     
  -8.1333333333333356E-006     0.0000000000000000     
  -7.9333333333333376E-006     0.0000000000000000     
  -7.7333333333333361E-006     0.0000000000000000     
  -7.5333333333333346E-006     0.0000000000000000     
  -7.3333333333333365E-006     0.0000000000000000     
  -7.1333333333333351E-006     0.0000000000000000     
  -6.9333333333333370E-006     0.0000000000000000     
  -6.7333333333333355E-006     0.0000000000000000     
  -6.5333333333333374E-006     0.0000000000000000     
  -6.3333333333333359E-006     0.0000000000000000     
  -6.1333333333333379E-006     0.0000000000000000     
  -5.9333333333333364E-006     0.0000000000000000     
  -5.7333333333333349E-006     0.0000000000000000     
  -5.5333333333333368E-006     0.0000000000000000     
  -5.3333333333333354E-006     0.0000000000000000     
  -5.1333333333333373E-006     0.0000000000000000     
  -4.9333333333333358E-006     0.0000000000000000     
  -4.7333333333333377E-006     0.0000000000000000     
  -4.5333333333333362E-006     0.0000000000000000     
  -4.3333333333333348E-006     0.0000000000000000     
  -4.1333333333333367E-006     0.0000000000000000     
  -3.9333333333333352E-006     0.0000000000000000     
  -3.7333333333333371E-006     0.0000000000000000     
  -3.5333333333333356E-006     0.0000000000000000     
  -3.3333333333333376E-006     0.0000000000000000     
  -3.1333333333333361E-006     0.0000000000000000     
  -2.9333333333333346E-006     0.0000000000000000     
  -2.7333333333333365E-006     0.0000000000000000     
  -2.5333333333333384E-006     0.0000000000000000     
  -2.3333333333333336E-006     0.0000000000000000     
  -2.1333333333333355E-006     0.0000000000000000     
  -1.9333333333333374E-006     0.0000000000000000     
  -1.7333333333333393E-006     0.0000000000000000     
  -1.5333333333333345E-006     0.0000000000000000     
  -1.3333333333333364E-006     0.0000000000000000     
  -1.1333333333333383E-006     0.0000000000000000     
  -9.3333333333333343E-007     0.0000000000000000     
  -7.3333333333333535E-007     0.0000000000000000     
  -5.3333333333333726E-007     0.0000000000000000     
  -3.3333333333333918E-007     0.0000000000000000     
  -1.3333333333333432E-007     0.0000000000000000     
   6.6666666666663770E-008     0.0000000000000000     
   2.6666666666666185E-007     0.0000000000000000     
   4.6666666666666672E-007     0.0000000000000000     
   6.6666666666666480E-007     0.0000000000000000     
   8.6666666666666289E-007     0.0000000000000000     
   1.0666666666666610E-006     0.0000000000000000     
   1.2666666666666658E-006     0.0000000000000000     
   1.4666666666666639E-006     0.0000000000000000     
   1.6666666666666620E-006     0.0000000000000000     
   1.8666666666666669E-006     0.0000000000000000     
   2.0666666666666649E-006     0.0000000000000000     
   2.2666666666666630E-006     0.0000000000000000     
   2.4666666666666611E-006     0.0000000000000000     
   2.6666666666666660E-006     1.3451317594075962E-038
   2.8666666666666641E-006     2.8997102753436583E-038
   3.0666666666666622E-006     4.0912057730703781E-038
   3.2666666666666602E-006     4.0912057730703781E-038
   3.4666666666666651E-006     2.2477963820824633E-038
   3.6666666666666632E-006    -3.1556081141466419E-038
   3.8666666666666613E-006    -9.3225690733284719E-038
   4.0666666666666661E-006    -1.6145734001020027E-037
   4.2666666666666642E-006    -1.9969801279525994E-037
   4.4666666666666623E-006    -1.7098361359921010E-037
   4.6666666666666604E-006    -7.5187308095447792E-038
   4.8666666666666652E-006     1.0249565562278182E-037
   5.0666666666666633E-006     3.4479020461193497E-037
   5.2666666666666614E-006     5.9680579646625139E-037
   5.4666666666666663E-006     8.1395845019546754E-037
   5.6666666666666644E-006     9.0084568121623495E-037
   5.8666666666666624E-006     7.7131844011801711E-037
   6.0666666666666605E-006     3.6174226144387030E-037
   6.2666666666666654E-006    -3.4349278160017363E-037
   6.4666666666666635E-006    -1.2923689205640974E-036
   6.6666666666666616E-006    -2.3487884164270553E-036
   6.8666666666666664E-006    -3.2932065429292902E-036
   7.0666666666666645E-006    -3.8383416893907191E-036
   7.2666666666666626E-006    -3.6725222978376668E-036
   7.4666666666666607E-006    -2.5247748224893330E-036
   7.6666666666666655E-006    -2.4840151980055785E-037
   7.8666666666666636E-006     3.0887502362270180E-036
   8.0666666666666617E-006     7.1276168838731522E-036
   8.2666666666666598E-006     1.1172229348480077E-035
   8.4666666666666647E-006     1.4239138162114989E-035
   8.6666666666666627E-006     1.5133123713831602E-035
   8.8666666666666608E-006     1.2684130753560548E-035
   9.0666666666666657E-006     6.0445233914820785E-036
   9.2666666666666638E-006    -4.9543506737738884E-036
   9.4666666666666619E-006    -1.9459363359238468E-035
   9.6666666666666599E-006    -3.5360597728005880E-035
   9.8666666666666648E-006    -4.9271058084301046E-035
   1.0066666666666663E-005    -5.6825773162212466E-035
   1.0266666666666661E-005    -5.3356055925808262E-035
   1.0466666666666666E-005    -3.4936951974651302E-035
   1.0666666666666664E-005     2.9934066958622729E-037
   1.0866666666666662E-005     5.0801462189462911E-035
   1.1066666666666660E-005     1.1051105934174713E-034
   1.1266666666666665E-005     1.6843916840265502E-034
   1.1466666666666663E-005     2.0929399114014951E-034
   1.1666666666666661E-005     2.1544634949313586E-034
   1.1866666666666666E-005     1.7030462283611230E-034
   1.2066666666666664E-005     6.2852523515328718E-035
   1.2266666666666662E-005    -1.0728514238876835E-034
   1.2466666666666660E-005    -3.2527138619914577E-034
   1.2666666666666665E-005    -5.5829649606598563E-034
   1.2866666666666663E-005    -7.5603503335444146E-034
   1.3066666666666661E-005    -8.5551174788800641E-034
   1.3266666666666666E-005    -7.9098574056450168E-034
   1.3466666666666664E-005    -5.0849993805351303E-034
   1.3666666666666662E-005     1.6501300415030374E-035
   1.3866666666666660E-005     7.6142986365849458E-034
   1.4066666666666665E-005     1.6428152523985573E-033
   1.4266666666666663E-005     2.5113354983173431E-033
   1.4466666666666661E-005     3.1601806456514061E-033
   1.4666666666666666E-005     3.3499715554313571E-033
   1.4866666666666664E-005     2.8508588581241216E-033
   1.5066666666666662E-005     1.4987360118442234E-033
   1.5266666666666661E-005    -7.4186072961768439E-034
   1.5466666666666665E-005    -3.7198867706656689E-033
   1.5666666666666663E-005    -7.0598824198203757E-033
   1.5866666666666662E-005    -1.0160000446932548E-032
   1.6066666666666660E-005    -1.2239798193738605E-032
   1.6266666666666665E-005    -1.2445641948246973E-032
   1.6466666666666663E-005    -1.0011690528741208E-032
   1.6666666666666661E-005    -4.4614815446864797E-033
   1.6866666666666666E-005     4.1792321267426017E-033
   1.7066666666666664E-005     1.5200846422940870E-032
   1.7266666666666662E-005     2.7110493803939589E-032
   1.7466666666666660E-005     3.7666547685022936E-032
   1.7666666666666665E-005     4.4088467280132978E-032
   1.7866666666666663E-005     4.3460594605056516E-032
   1.8066666666666661E-005     3.3313565738285292E-032
   1.8266666666666666E-005     1.2322781482750936E-032
   1.8466666666666664E-005    -1.8983737119416721E-032
   1.8666666666666662E-005    -5.7657151551900610E-032
   1.8866666666666660E-005    -9.8073133503722844E-032
   1.9066666666666665E-005    -1.3216126479585959E-031
   1.9266666666666663E-005    -1.5024851408735757E-031
   1.9466666666666661E-005    -1.4256289692281129E-031
   1.9666666666666666E-005    -1.0131898491234615E-031
   1.9866666666666664E-005    -2.3151719765221953E-032
   2.0066666666666662E-005     8.8498073739438852E-032
   2.0266666666666660E-005     2.2158381194497438E-031
   2.0466666666666665E-005     3.5485365019826395E-031
   2.0666666666666663E-005     4.5904070026729438E-031
   2.0866666666666661E-005     5.0026881363368447E-031
   2.1066666666666659E-005     4.4577802068493280E-031
   2.1266666666666664E-005     2.7160450550608010E-031
   2.1466666666666662E-005    -2.8724756114885681E-032
   2.1666666666666660E-005    -4.3601652751660840E-031
   2.1866666666666665E-005    -8.9977547402900730E-031
   2.2066666666666663E-005    -1.3373606752469010E-030
   2.2266666666666661E-005    -1.6400026984932226E-030
   2.2466666666666659E-005    -1.6870335691927859E-030
   2.2666666666666664E-005    -1.3683634453741322E-030
   2.2866666666666662E-005    -6.1339871909523965E-031
   2.3066666666666660E-005     5.7757990159291549E-031
   2.3266666666666665E-005     2.1056925590460563E-030
   2.3466666666666663E-005     3.7570984931377358E-030
   2.3666666666666661E-005     5.2061693117692688E-030
   2.3866666666666660E-005     6.0451630762223418E-030
   2.4066666666666664E-005     5.8440651450565488E-030
   2.4266666666666662E-005     4.2388597124550117E-030
   2.4466666666666661E-005     1.0393153051100349E-030
   2.4666666666666665E-005    -3.6605232626979070E-030
   2.4866666666666663E-005    -9.3931252122230445E-030
   2.5066666666666662E-005    -1.5277953868258764E-029
   2.5266666666666660E-005    -2.0059705396330310E-029
   2.5466666666666665E-005    -2.2245483915300149E-029
   2.5666666666666663E-005    -2.0347714677818500E-029
   2.5866666666666661E-005    -1.3218192857595382E-029
   2.6066666666666666E-005    -4.3252907087658883E-031
   2.6266666666666664E-005     1.7342484564800043E-029
   2.6466666666666662E-005     3.8087446367772715E-029
   2.6666666666666660E-005     5.8372848184093674E-029
   2.6866666666666665E-005     7.3593845683512724E-029
   2.7066666666666663E-005     7.8552429177767168E-029
   2.7266666666666661E-005     6.8384367684284308E-029
   2.7466666666666666E-005     3.9749993355202844E-029
   2.7666666666666664E-005    -7.8801101340141248E-030
   2.7866666666666662E-005    -7.1095583526433287E-029
   2.8066666666666667E-005    -1.4187870899351405E-028
   2.8266666666666658E-005    -2.0771060561131550E-028
   2.8466666666666663E-005    -2.5270167726316240E-028
   2.8666666666666668E-005    -2.5985749404565748E-028
   2.8866666666666659E-005    -2.1437998063810697E-028
   2.9066666666666664E-005    -1.0764008014705678E-028
   2.9266666666666669E-005     5.8815216236726193E-029
   2.9466666666666660E-005     2.7008512094120159E-028
   2.9666666666666665E-005     4.9654398048564629E-028
   2.9866666666666656E-005     6.9519132829754559E-028
   3.0066666666666661E-005     8.1435357322639067E-028
   3.0266666666666666E-005     8.0184966565545098E-028
   3.0466666666666657E-005     6.1601745569350435E-028
   3.0666666666666662E-005     2.3817532658349737E-028
   3.0866666666666667E-005    -3.1569082906067537E-028
   3.1066666666666658E-005    -9.8678949597766579E-028
   3.1266666666666663E-005    -1.6718591476007329E-027
   3.1466666666666668E-005    -2.2304656909135231E-027
   3.1666666666666659E-005    -2.5026423477002050E-027
   3.1866666666666664E-005    -2.3364844750851461E-027
   3.2066666666666656E-005    -1.6230528087290549E-027
   3.2266666666666660E-005    -3.3352977924468645E-028
   3.2466666666666665E-005     1.4485406372012331E-027
   3.2666666666666657E-005     3.5083537201954865E-027
   3.2866666666666661E-005     5.5025806070845936E-027
   3.3066666666666666E-005     6.9900918589315191E-027
   3.3266666666666658E-005     7.4931547752411759E-027
   3.3466666666666662E-005     6.5859316082419689E-027
   3.3666666666666667E-005     4.0004076357570370E-027
   3.3866666666666659E-005    -2.6691983100347686E-028
   3.4066666666666664E-005    -5.8696050765864691E-027
   3.4266666666666668E-005    -1.2071574817023643E-026
   3.4466666666666660E-005    -1.7775807993005358E-026
   3.4666666666666665E-005    -2.1636843012034891E-026
   3.4866666666666656E-005    -2.2260044667903445E-026
   3.5066666666666661E-005    -1.8473587819296409E-026
   3.5266666666666666E-005    -9.6398448246897875E-027
   3.5466666666666657E-005     4.0453800258884233E-027
   3.5666666666666662E-005     2.1330643262036653E-026
   3.5866666666666667E-005     3.9832613125737507E-026
   3.6066666666666658E-005     5.6166027472145133E-026
   3.6266666666666663E-005     6.6316713659003969E-026
   3.6466666666666668E-005     6.6256624644739087E-026
   3.6666666666666659E-005     5.2751017798564263E-026
   3.6866666666666664E-005     2.4254526933103178E-026
   3.7066666666666669E-005    -1.8255672697948882E-026
   3.7266666666666660E-005    -7.0694195266712694E-026
   3.7466666666666665E-005    -1.2571981336679606E-025
   3.7666666666666656E-005    -1.7318676965125381E-025
   3.7866666666666661E-005    -2.0128598276927461E-025
   3.8066666666666666E-005    -1.9835961695969576E-025
   3.8266666666666657E-005    -1.5523669581316052E-025
   3.8466666666666662E-005    -6.7791384350725675E-026
   3.8666666666666667E-005     6.0704257978220105E-026
   3.8866666666666658E-005     2.1794819187578802E-025
   3.9066666666666663E-005     3.8222544320395929E-025
   3.9266666666666668E-005     5.2372036693744445E-025
   3.9466666666666659E-005     6.0778025101024421E-025
   3.9666666666666664E-005     6.0009359034977067E-025
   3.9866666666666655E-005     4.7337570770049866E-025
   4.0066666666666660E-005     2.1475180144354235E-025
   4.0266666666666665E-005    -1.6734213618232627E-025
   4.0466666666666656E-005    -6.3818206282894363E-025
   4.0666666666666661E-005    -1.1352163993303125E-024
   4.0866666666666666E-005    -1.5712984119136484E-024
   4.1066666666666657E-005    -1.8435438752438953E-024
   4.1266666666666662E-005    -1.8478924709839262E-024
   4.1466666666666667E-005    -1.4984220609827472E-024
   4.1666666666666658E-005    -7.4930022107747013E-025
   4.1866666666666663E-005     3.8388683357416132E-025
   4.2066666666666668E-005     1.8075907506275425E-024
   4.2266666666666660E-005     3.3431357183414721E-024
   4.2466666666666664E-005     4.7332533893170030E-024
   4.2666666666666656E-005     5.6654905529228389E-024
   4.2866666666666661E-005     5.8135498840715076E-024
   4.3066666666666665E-005     4.8946495973597907E-024
   4.3266666666666657E-005     2.7373465522560057E-024
   4.3466666666666662E-005    -6.4950971099746475E-025
   4.3666666666666666E-005    -5.0193570679921069E-024
   4.3866666666666658E-005    -9.8567452243941674E-024
   4.4066666666666663E-005    -1.4387098461292442E-023
   4.4266666666666667E-005    -1.7639278517261932E-023
   4.4466666666666659E-005    -1.8566718617703119E-023
   4.4666666666666664E-005    -1.6223617135744892E-023
   4.4866666666666655E-005    -9.9808227895936647E-024
   4.5066666666666660E-005     2.4691760485392911E-025
   4.5266666666666665E-005     1.3802644038388678E-023
   4.5466666666666656E-005     2.9166308124134041E-023
   4.5666666666666661E-005     4.3961340759012562E-023
   4.5866666666666666E-005     5.5130831782367731E-023
   4.6066666666666657E-005     5.9306411393221865E-023
   4.6266666666666662E-005     5.3362685260292597E-023
   4.6466666666666667E-005     3.5110813651637667E-023
   4.6666666666666658E-005     4.0409664138349579E-024
   4.6866666666666663E-005    -3.8017185485750853E-023
   4.7066666666666668E-005    -8.6475033404523182E-023
   4.7266666666666659E-005    -1.3397175528447958E-022
   4.7466666666666664E-005    -1.7090658889838737E-022
   4.7666666666666655E-005    -1.8659375064186758E-022
   4.7866666666666660E-005    -1.7101706729044176E-022
   4.8066666666666665E-005    -1.1703358636306368E-022
   4.8266666666666656E-005    -2.2733325724621269E-023
   4.8466666666666661E-005     1.0646633384285958E-022
   4.8666666666666666E-005     2.5649985251571623E-022
   4.8866666666666657E-005     4.0462657447379611E-022
   4.9066666666666662E-005     5.2112742097945869E-022
   4.9266666666666667E-005     5.7294783268294628E-022
   4.9466666666666658E-005     5.2918879688079945E-022
   4.9666666666666663E-005     3.6794133645030024E-022
   4.9866666666666655E-005     8.3525772780714941E-023
   5.0066666666666659E-005    -3.0718877262385273E-022
   5.0266666666666664E-005    -7.6094926458941368E-022
   5.0466666666666656E-005    -1.2083310398971320E-021
   5.0666666666666660E-005    -1.5592437345465184E-021
   5.0866666666666665E-005    -1.7143031428445233E-021
   5.1066666666666657E-005    -1.5816446579515067E-021
   5.1266666666666661E-005    -1.0975186252028074E-021
   5.1466666666666666E-005    -2.4773483793046730E-022
   5.1666666666666658E-005     9.1407032173643296E-022
   5.1866666666666662E-005     2.2559806302187045E-021
   5.2066666666666667E-005     3.5696724879752321E-021
   5.2266666666666659E-005     4.5880461248177321E-021
   5.2466666666666664E-005     5.0199559775022380E-021
   5.2666666666666655E-005     4.6003787092043015E-021
   5.2866666666666660E-005     3.1507652844410776E-021
   5.3066666666666665E-005     6.4070333564609417E-022
   5.3266666666666656E-005    -2.7609346103491558E-021
   5.3466666666666661E-005    -6.6586734723908110E-021
   5.3666666666666666E-005    -1.0439541165063457E-020
   5.3866666666666657E-005    -1.3327756980478859E-020
   5.4066666666666662E-005    -1.4487918179262828E-020
   5.4266666666666667E-005    -1.3170838233338136E-020
   5.4466666666666658E-005    -8.8861387877479188E-021
   5.4666666666666663E-005    -1.5756503248137857E-021
   5.4866666666666668E-005     8.2461110199592814E-021
   5.5066666666666659E-005     1.9421591706395612E-020
   5.5266666666666664E-005     3.0184389238731110E-020
   5.5466666666666655E-005     3.8322049933360014E-020
   5.5666666666666660E-005     4.1473511131959016E-020
   5.5866666666666665E-005     3.7542748861107028E-020
   5.6066666666666656E-005     2.5182332754982052E-020
   5.6266666666666661E-005     4.2736399438651547E-021
   5.6466666666666666E-005    -2.3689995532359821E-020
   5.6666666666666657E-005    -5.5419136487098041E-020
   5.6866666666666662E-005    -8.5935916622756221E-020
   5.7066666666666667E-005    -1.0903669944944973E-019
   5.7266666666666658E-005    -1.1812299413500917E-019
   5.7466666666666663E-005    -1.0734700210255117E-019
   5.7666666666666654E-005    -7.2942841441760292E-020
   5.7866666666666659E-005    -1.4542970926437353E-020
   5.8066666666666664E-005     6.3774733423740525E-020
   5.8266666666666655E-005     1.5298392651499125E-019
   5.8466666666666660E-005     2.3939938171082948E-019
   5.8666666666666665E-005     3.0592752797512054E-019
   5.8866666666666656E-005     3.3431199805033041E-019
   5.9066666666666661E-005     3.0823055389683303E-019
   5.9266666666666666E-005     2.1689975885665742E-019
   5.9466666666666657E-005     5.8654446657946070E-020
   5.9666666666666662E-005    -1.5617330231244845E-019
   5.9866666666666667E-005    -4.0380618134668935E-019
   6.0066666666666659E-005    -6.4766794396830099E-019
   6.0266666666666663E-005    -8.4158068964423363E-019
   6.0466666666666655E-005    -9.3562026854597311E-019
   6.0666666666666660E-005    -8.8427727132238326E-019
   6.0866666666666664E-005    -6.5604780056134601E-019
   6.1066666666666656E-005    -2.4308082657517916E-019
   6.1266666666666661E-005     3.3087015122028555E-019
   6.1466666666666665E-005     1.0061053625173823E-018
   6.1666666666666657E-005     1.6880108290271359E-018
   6.1866666666666662E-005     2.2547206418909173E-018
   6.2066666666666666E-005     2.5717930327529062E-018
   6.2266666666666658E-005     2.5131151148450790E-018
   6.2466666666666663E-005     1.9859150669520101E-018
   6.2666666666666668E-005     9.5645694817618388E-019
   6.2866666666666659E-005    -5.2801906009707290E-019
   6.3066666666666664E-005    -2.3260484261113649E-018
   6.3266666666666655E-005    -4.2020411158224283E-018
   6.3466666666666660E-005    -5.8432150140128570E-018
   6.3666666666666665E-005    -6.8947431387122105E-018
   6.3866666666666656E-005    -7.0116113515567650E-018
   6.4066666666666661E-005    -5.9223311172907976E-018
   6.4266666666666666E-005    -3.4962773823023842E-018
   6.4466666666666657E-005     1.9629394016553138E-019
   6.4666666666666662E-005     4.8440279833437151E-018
   6.4866666666666667E-005     9.8862120455081832E-018
   6.5066666666666658E-005     1.4546110038087901E-017
   6.5266666666666663E-005     1.7910670488369791E-017
   6.5466666666666654E-005     1.9054482604518317E-017
   6.5666666666666659E-005     1.7197581243344977E-017
   6.5866666666666664E-005     1.1878240804367573E-017
   6.6066666666666655E-005     3.1144888618560841E-018
   6.6266666666666660E-005    -8.4764348926442573E-018
   6.6466666666666665E-005    -2.1631904601339646E-017
   6.6666666666666656E-005    -3.4497292822560652E-017
   6.6866666666666661E-005    -4.4794553248322973E-017
   6.7066666666666666E-005    -5.0105674820734051E-017
   6.7266666666666657E-005    -4.8250891041928847E-017
   6.7466666666666662E-005    -3.7720378918316372E-017
   6.7666666666666667E-005    -1.8098933487064410E-017
   6.7866666666666658E-005     9.5904544446704607E-018
   6.8066666666666663E-005     4.2702362016270150E-017
   6.8266666666666655E-005     7.7014220797831114E-017
   6.8466666666666659E-005     1.0704936721531326E-016
   6.8666666666666664E-005     1.2669073115571550E-016
   6.8866666666666656E-005     1.3005210199755539E-016
   6.9066666666666660E-005     1.1252251692611123E-016
   6.9266666666666665E-005     7.1850118998772761E-017
   6.9466666666666657E-005     9.0933577740148811E-018
   6.9666666666666661E-005    -7.0751384917285925E-017
   6.9866666666666666E-005    -1.5862775108991427E-016
   7.0066666666666658E-005    -2.4194368525708057E-016
   7.0266666666666662E-005    -3.0580827541416031E-016
   7.0466666666666654E-005    -3.3494454120359333E-016
   7.0666666666666659E-005    -3.1612095448654062E-016
   7.0866666666666664E-005    -2.4082200187667906E-016
   7.1066666666666655E-005    -1.0777256791614592E-016
   7.1266666666666660E-005     7.5133112823212023E-017
   7.1466666666666665E-005     2.8995496854533241E-016
   7.1666666666666656E-005     5.0927173033351084E-016
   7.1866666666666661E-005     6.9842922229020987E-016
   7.2066666666666666E-005     8.1949490028743817E-016
   7.2266666666666657E-005     8.3666701098536141E-016
   7.2466666666666662E-005     7.2259263705565170E-016
   7.2666666666666667E-005     4.6477497203187431E-016
   7.2866666666666658E-005     7.1050460339560598E-017
   7.3066666666666663E-005    -4.2696667704933335E-016
   7.3266666666666654E-005    -9.7349295457611765E-016
   7.3466666666666659E-005    -1.4919976087324964E-015
   7.3666666666666664E-005    -1.8927510248142529E-015
   7.3866666666666655E-005    -2.0842198579257721E-015
   7.4066666666666660E-005    -1.9873463938141923E-015
   7.4266666666666665E-005    -1.5510685218037088E-015
   7.4466666666666656E-005    -7.6687080791733742E-016
   7.4666666666666661E-005     3.2018133926810211E-016
   7.4866666666666666E-005     1.6064780290812961E-015
   7.5066666666666657E-005     2.9331253832682149E-015
   7.5266666666666662E-005     4.0987458449514604E-015
   7.5466666666666653E-005     4.8819099668839447E-015