  -3.3333333333333335E-005     0.0000000000000000     
  -3.3133333333333337E-005     0.0000000000000000     
  -3.2933333333333332E-005     0.0000000000000000     
  -3.2733333333333334E-005     0.0000000000000000     
  -3.2533333333333336E-005     0.0000000000000000     
  -3.2333333333333338E-005     0.0000000000000000     
  -3.2133333333333333E-005     0.0000000000000000     
  -3.1933333333333335E-005     0.0000000000000000     
  -3.1733333333333337E-005     0.0000000000000000     
  -3.1533333333333332E-005     0.0000000000000000     
  -3.1333333333333334E-005     0.0000000000000000     
  -3.1133333333333336E-005     0.0000000000000000     
  -3.0933333333333338E-005     0.0000000000000000     
  -3.0733333333333333E-005     0.0000000000000000     
  -3.0533333333333335E-005     0.0000000000000000     
  -3.0333333333333337E-005     0.0000000000000000     
  -3.0133333333333335E-005     0.0000000000000000     
  -2.9933333333333334E-005     0.0000000000000000     
  -2.9733333333333336E-005     0.0000000000000000     
  -2.9533333333333334E-005     0.0000000000000000     
  -2.9333333333333336E-005     0.0000000000000000     
  -2.9133333333333334E-005     0.0000000000000000     
  -2.8933333333333336E-005     0.0000000000000000     
  -2.8733333333333335E-005     0.0000000000000000     
  -2.8533333333333333E-005     0.0000000000000000     
  -2.8333333333333335E-005     0.0000000000000000     
  -2.8133333333333337E-005     0.0000000000000000     
  -2.7933333333333336E-005     0.0000000000000000     
  -2.7733333333333334E-005     0.0000000000000000     
  -2.7533333333333336E-005     0.0000000000000000     
  -2.7333333333333335E-005     0.0000000000000000     
  -2.7133333333333333E-005     0.0000000000000000     
  -2.6933333333333335E-005     0.0000000000000000     
  -2.6733333333333337E-005     0.0000000000000000     
  -2.6533333333333336E-005     0.0000000000000000     
  -2.6333333333333334E-005     0.0000000000000000     
  -2.6133333333333336E-005     0.0000000000000000     
  -2.5933333333333335E-005     0.0000000000000000     
  -2.5733333333333333E-005     0.0000000000000000     
  -2.5533333333333335E-005     0.0000000000000000     
  -2.5333333333333337E-005     0.0000000000000000     
  -2.5133333333333336E-005     0.0000000000000000     
  -2.4933333333333334E-005     0.0000000000000000     
  -2.4733333333333336E-005     0.0000000000000000     
  -2.4533333333333334E-005     0.0000000000000000     
  -2.4333333333333333E-005     0.0000000000000000     
  -2.4133333333333335E-005     0.0000000000000000     
  -2.3933333333333337E-005     0.0000000000000000     
  -2.3733333333333335E-005     0.0000000000000000     
  -2.3533333333333334E-005     0.0000000000000000     
  -2.3333333333333336E-005     0.0000000000000000     
  -2.3133333333333338E-005     0.0000000000000000     
  -2.2933333333333336E-005     0.0000000000000000     
  -2.2733333333333335E-005     0.0000000000000000     
  -2.2533333333333337E-005     0.0000000000000000     
  -2.2333333333333335E-005     0.0000000000000000     
  -2.2133333333333334E-005     0.0000000000000000     
  -2.1933333333333336E-005     0.0000000000000000     
  -2.1733333333333338E-005     0.0000000000000000     
  -2.1533333333333336E-005     0.0000000000000000     
  -2.1333333333333335E-005     0.0000000000000000     
  -2.1133333333333337E-005     0.0000000000000000     
  -2.0933333333333335E-005     0.0000000000000000     
  -2.0733333333333334E-005     0.0000000000000000     
  -2.0533333333333336E-005     0.0000000000000000     
  -2.0333333333333337E-005     0.0000000000000000     
  -2.0133333333333336E-005     0.0000000000000000     
  -1.9933333333333334E-005     0.0000000000000000     
  -1.9733333333333336E-005     0.0000000000000000     
  -1.9533333333333335E-005     0.0000000000000000     
  -1.9333333333333333E-005     0.0000000000000000     
  -1.9133333333333335E-005     0.0000000000000000     
  -1.8933333333333337E-005     0.0000000000000000     
  -1.8733333333333336E-005     0.0000000000000000     
  -1.8533333333333334E-005     0.0000000000000000     
  -1.8333333333333336E-005     0.0000000000000000     
  -1.8133333333333335E-005     0.0000000000000000     
  -1.7933333333333337E-005     0.0000000000000000     
  -1.7733333333333335E-005     0.0000000000000000     
  -1.7533333333333337E-005     0.0000000000000000     
  -1.7333333333333336E-005     0.0000000000000000     
  -1.7133333333333334E-005     0.0000000000000000     
  -1.6933333333333336E-005     0.0000000000000000     
  -1.6733333333333335E-005     0.0000000000000000     
  -1.6533333333333337E-005     0.0000000000000000     
  -1.6333333333333335E-005     0.0000000000000000     
  -1.6133333333333337E-005     0.0000000000000000     
  -1.5933333333333336E-005     0.0000000000000000     
  -1.5733333333333334E-005     0.0000000000000000     
  -1.5533333333333336E-005     0.0000000000000000     
  -1.5333333333333334E-005     0.0000000000000000     
  -1.5133333333333336E-005     0.0000000000000000     
  -1.4933333333333335E-005     0.0000000000000000     
  -1.4733333333333337E-005     0.0000000000000000     
  -1.4533333333333335E-005     0.0000000000000000     
  -1.4333333333333337E-005     0.0000000000000000     
  -1.4133333333333336E-005     0.0000000000000000     
  -1.3933333333333334E-005     0.0000000000000000     
  -1.3733333333333336E-005     0.0000000000000000     
  -1.3533333333333335E-005     0.0000000000000000     
  -1.3333333333333337E-005     0.0000000000000000     
  -1.3133333333333335E-005     0.0000000000000000     
  -1.2933333333333337E-005     0.0000000000000000     
  -1.2733333333333336E-005     0.0000000000000000     
  -1.2533333333333338E-005     0.0000000000000000     
  -1.2333333333333336E-005     0.0000000000000000     
  -1.2133333333333335E-005     0.0000000000000000     
  -1.1933333333333337E-005     0.0000000000000000     
  -1.1733333333333335E-005     0.0000000000000000     
  -1.1533333333333337E-005     0.0000000000000000     
  -1.1333333333333336E-005     0.0000000000000000     
  -1.1133333333333337E-005     0.0000000000000000     
  -1.0933333333333336E-005     0.0000000000000000     
  -1.0733333333333334E-005     0.0000000000000000     
  -1.0533333333333336E-005     0.0000000000000000     
  -1.0333333333333335E-005     0.0000000000000000     
  -1.0133333333333337E-005     0.0000000000000000     
  -9.9333333333333354E-006     0.0000000000000000     
  -9.7333333333333373E-006     0.0000000000000000     
  -9.5333333333333358E-006     0.0000000000000000     
  -9.3333333333333343E-006     0.0000000000000000     
  -9.1333333333333362E-006     0.0000000000000000     
  -8.9333333333333348E-006     0.0000000000000000     
  -8.7333333333333367E-006     0.0000000000000000     
  -8.5333333333333352E-006     0.0000000000000000     
  -8.3333333333333371E-006     0.0000000000000000     
  -8.1333333333333356E-006     0.0000000000000000     
  -7.9333333333333376E-006     0.0000000000000000     
  -7.7333333333333361E-006     0.0000000000000000     
  -7.5333333333333346E-006     0.0000000000000000     
  -7.3333333333333365E-006     0.0000000000000000     
  -7.1333333333333351E-006     0.0000000000000000     
  -6.9333333333333370E-006     0.0000000000000000     
  -6.7333333333333355E-006     0.0000000000000000     
  -6.5333333333333374E-006     0.0000000000000000     
  -6.3333333333333359E-006     0.0000000000000000     
  -6.1333333333333379E-006     0.0000000000000000     
  -5.9333333333333364E-006     0.0000000000000000     
  -5.7333333333333349E-006     0.0000000000000000     
  -5.5333333333333368E-006     0.0000000000000000     
  -5.3333333333333354E-006     0.0000000000000000     
  -5.1333333333333373E-006     0.0000000000000000     
  -4.9333333333333358E-006     0.0000000000000000     
  -4.7333333333333377E-006     0.0000000000000000     
  -4.5333333333333362E-006     0.0000000000000000     
  -4.3333333333333348E-006     0.0000000000000000     
  -4.1333333333333367E-006     0.0000000000000000     
  -3.9333333333333352E-006     0.0000000000000000     
  -3.7333333333333371E-006     0.0000000000000000     
  -3.5333333333333356E-006     0.0000000000000000     
  -3.3333333333333376E-006     0.0000000000000000     
  -3.1333333333333361E-006     0.0000000000000000     
  -2.9333333333333346E-006     0.0000000000000000     
  -2.7333333333333365E-006     0.0000000000000000     
  -2.5333333333333384E-006     0.0000000000000000     
  -2.3333333333333336E-006     0.0000000000000000     
  -2.1333333333333355E-006     0.0000000000000000     
  -1.9333333333333374E-006     0.0000000000000000     
  -1.7333333333333393E-006     0.0000000000000000     
  -1.5333333333333345E-006     0.0000000000000000     
  -1.3333333333333364E-006     0.0000000000000000     
  -1.1333333333333383E-006     0.0000000000000000     
  -9.3333333333333343E-007     0.0000000000000000     
  -7.3333333333333535E-007     0.0000000000000000     
  -5.3333333333333726E-007     0.0000000000000000     
  -3.3333333333333918E-007     0.0000000000000000     
  -1.3333333333333432E-007     0.0000000000000000     
   6.6666666666663770E-008     0.0000000000000000     
   2.6666666666666185E-007     0.0000000000000000     
   4.6666666666666672E-007     0.0000000000000000     
   6.6666666666666480E-007     0.0000000000000000     
   8.6666666666666289E-007     0.0000000000000000     
   1.0666666666666610E-006     0.0000000000000000     
   1.2666666666666658E-006     0.0000000000000000     
   1.4666666666666639E-006     0.0000000000000000     
   1.6666666666666620E-006     0.0000000000000000     
   1.8666666666666669E-006     0.0000000000000000     
   2.0666666666666649E-006     0.0000000000000000     
   2.2666666666666630E-006     1.2901006667658641E-038
   2.4666666666666611E-006     1.2901006667658641E-038
   2.6666666666666660E-006     1.2901006667658641E-038
   2.8666666666666641E-006    -3.2158238709765294E-038
   3.0666666666666622E-006    -7.9852600625979690E-038
   3.2666666666666602E-006    -1.0178534303640943E-037
   3.4666666666666651E-006    -7.1990251254284579E-038
   3.6666666666666632E-006     3.4689527440140072E-038
   3.8666666666666613E-006     1.8744499176087745E-037
   4.0666666666666661E-006     3.3952730873311326E-037
   4.2666666666666642E-006     4.3265585585165712E-037
   4.4666666666666623E-006     4.0464665730518182E-037
   4.6666666666666604E-006     2.1772676010485617E-037
   4.8666666666666652E-006    -1.3291515479022210E-037
   5.0666666666666633E-006    -6.1023978700481597E-037
   5.2666666666666614E-006    -1.1354106678761724E-036
   5.4666666666666663E-006    -1.5965814452848858E-036
   5.6666666666666644E-006    -1.8531524230285802E-036
   5.8666666666666624E-006    -1.7476515539295951E-036
   6.0666666666666605E-006    -1.1232559171004961E-036
   6.2666666666666654E-006     1.3494291214081411E-037
   6.4666666666666635E-006     2.0380624770778818E-036
   6.6666666666666616E-006     4.4153918231614912E-036
   6.8666666666666664E-006     6.8492570378349572E-036
   7.0666666666666645E-006     8.6562574605228575E-036
   7.2666666666666626E-006     8.9509683296660573E-036
   7.4666666666666607E-006     6.8156682051151719E-036
   7.6666666666666655E-006     1.5743403947915292E-036
   7.8666666666666636E-006    -6.8699874661629962E-036
   8.0666666666666617E-006    -1.7709757969254871E-035
   8.2666666666666598E-006    -2.9021724352181911E-035
   8.4666666666666647E-006    -3.7782153398870107E-035
   8.6666666666666627E-006    -4.0212766345542915E-035
   8.8666666666666608E-006    -3.2502074417125657E-035
   9.0666666666666657E-006    -1.1879807497081125E-035
   9.2666666666666638E-006     2.2092730427342964E-035
   9.4666666666666619E-006     6.6280524477603155E-035
   9.6666666666666599E-006     1.1314762199813200E-034
   9.8666666666666648E-006     1.5079536553879712E-034
   1.0066666666666663E-005     1.6426323620079586E-034
   1.0266666666666661E-005     1.3833010890610324E-034
   1.0466666666666666E-005     6.1727808454163290E-035
   1.0666666666666664E-005    -6.7776679682416599E-035
   1.0866666666666662E-005    -2.3848718671295467E-034
   1.1066666666666660E-005    -4.2157745726898203E-034
   1.1266666666666665E-005    -5.7130485634352085E-034
   1.1466666666666663E-005    -6.3017646033308191E-034
   1.1666666666666661E-005    -5.3988265256684297E-034
   1.1866666666666666E-005    -2.5752094277003781E-034
   1.2066666666666664E-005     2.2510911968676142E-034
   1.2266666666666662E-005     8.6328121453396479E-034
   1.2466666666666660E-005     1.5478948182536268E-033
   1.2666666666666665E-005     2.1071908059420480E-033
   1.2866666666666663E-005     2.3271116563144896E-033
   1.3066666666666661E-005     1.9929180613627363E-033
   1.3266666666666666E-005     9.4974690556060594E-034
   1.3466666666666664E-005    -8.2669891198141362E-034
   1.3666666666666662E-005    -3.1649807033645920E-033
   1.3866666666666660E-005    -5.6593246145117913E-033
   1.4066666666666665E-005    -7.6803854800011517E-033
   1.4266666666666663E-005    -8.4540290054711784E-033
   1.4466666666666661E-005    -7.2155560754356483E-033
   1.4666666666666666E-005    -3.4284075180159281E-033
   1.4866666666666664E-005     2.9667486421197831E-033
   1.5066666666666662E-005     1.1330108829576161E-032
   1.5266666666666661E-005     2.0202364766074494E-032
   1.5466666666666665E-005     2.7362948848193938E-032
   1.5666666666666663E-005     3.0125619181383494E-032
   1.5866666666666662E-005     2.5887262627530408E-032
   1.6066666666666660E-005     1.2880335351077240E-032
   1.6266666666666665E-005    -8.9987398633307796E-033
   1.6466666666666663E-005    -3.7486561867496782E-032
   1.6666666666666661E-005    -6.7622416665940061E-032
   1.6866666666666666E-005    -9.2031498086047320E-032
   1.7066666666666664E-005    -1.0198447928412068E-031
   1.7266666666666662E-005    -8.9240898007082226E-032
   1.7466666666666660E-005    -4.8464806299621461E-032
   1.7666666666666665E-005     2.0241708561996516E-032
   1.7866666666666663E-005     1.0934808152620270E-031
   1.8066666666666661E-005     2.0320413492382234E-031
   1.8266666666666666E-005     2.7931854612402926E-031
   1.8466666666666664E-005     3.1196580933817384E-031
   1.8666666666666662E-005     2.7794998858102792E-031
   1.8866666666666660E-005     1.6367733804126437E-031
   1.9066666666666665E-005    -2.7985890324468701E-032
   1.9266666666666663E-005    -2.7307340324686763E-031
   1.9466666666666661E-005    -5.2616236809472765E-031
   1.9666666666666666E-005    -7.2584660273444773E-031
   1.9866666666666664E-005    -8.0642429545506583E-031
   2.0066666666666662E-005    -7.1449927364731600E-031
   2.0266666666666660E-005    -4.2730117730074179E-031
   2.0466666666666665E-005     3.2064600051800735E-032
   2.0666666666666663E-005     5.8793859291123166E-031
   2.0866666666666661E-005     1.1187771245533044E-030
   2.1066666666666659E-005     1.4794968442104768E-030
   2.1266666666666664E-005     1.5377847190112546E-030
   2.1466666666666662E-005     1.2176974192032496E-030
   2.1666666666666660E-005     5.3924195267700515E-031
   2.1866666666666665E-005    -3.6011560960039782E-031
   2.2066666666666663E-005    -1.2353112146350669E-030
   2.2266666666666661E-005    -1.7828739746040286E-030
   2.2466666666666659E-005    -1.7274645563299964E-030
   2.2666666666666664E-005    -9.3062674644430453E-031
   2.2866666666666662E-005     5.0669171476657745E-031
   2.3066666666666660E-005     2.1855169009471194E-030
   2.3266666666666665E-005     3.4323408132145917E-030
   2.3466666666666663E-005     3.4310268926490166E-030
   2.3666666666666661E-005     1.4640093769999749E-030
   2.3866666666666660E-005    -2.7726116299737827E-030
   2.4066666666666664E-005    -8.8553506526540578E-030
   2.4266666666666662E-005    -1.5428263672621574E-029
   2.4466666666666661E-005    -2.0224321249061271E-029
   2.4666666666666665E-005    -2.0408089572309502E-029
   2.4866666666666663E-005    -1.3271053616037736E-029
   2.5066666666666662E-005     2.7895060228628968E-030
   2.5266666666666660E-005     2.7198193323224212E-029
   2.5466666666666665E-005     5.6338566624741427E-029
   2.5666666666666663E-005     8.3267268181966179E-029
   2.5866666666666661E-005     9.8351265858497458E-029
   2.6066666666666666E-005     9.1035542723838552E-029
   2.6266666666666664E-005     5.2688700675946719E-029
   2.6466666666666662E-005    -1.9878785342913896E-029
   2.6666666666666660E-005    -1.2100363858573587E-028
   2.6866666666666665E-005    -2.3394201219511270E-028
   2.7066666666666663E-005    -3.3099359432329581E-028
   2.7266666666666661E-005    -3.7693005683659380E-028
   2.7466666666666666E-005    -3.3609367348315196E-028
   2.7666666666666664E-005    -1.8260189581447453E-028
   2.7866666666666662E-005     8.8044483242239032E-029
   2.8066666666666667E-005     4.4874398815815922E-028
   2.8266666666666658E-005     8.3548054323383255E-028
   2.8466666666666663E-005     1.1504106299664750E-027
   2.8666666666666668E-005     1.2758242990500552E-027
   2.8866666666666659E-005     1.0993340048763533E-027
   2.9066666666666664E-005     5.4758849069394532E-028
   2.9266666666666669E-005    -3.7763162496708546E-028
   2.9466666666666660E-005    -1.5701235353289299E-027
   2.9666666666666665E-005    -2.8075819617358302E-027
   2.9866666666666656E-005    -3.7675430609951874E-027
   3.0066666666666661E-005    -4.0771285958356580E-027
   3.0266666666666666E-005    -3.3957499889510091E-027
   3.0466666666666657E-005    -1.5206116320221256E-027
   3.0666666666666662E-005     1.5051878220625004E-027
   3.0866666666666667E-005     5.3103335096638820E-027
   3.1066666666666658E-005     9.1705658010925939E-027
   3.1266666666666663E-005     1.2069541035002370E-026
   3.1466666666666668E-005     1.2860481174191343E-026
   3.1666666666666659E-005     1.0522489273738725E-026
   3.1866666666666664E-005     4.4779558321634517E-027
   3.2066666666666656E-005    -5.0904574064469799E-027
   3.2266666666666660E-005    -1.7006653202975316E-026
   3.2466666666666665E-005    -2.9042675353225571E-026
   3.2666666666666657E-005    -3.8112239995430654E-026
   3.2866666666666661E-005    -4.0755423228962629E-026
   3.3066666666666666E-005    -3.3892025204748724E-026
   3.3266666666666658E-005    -1.5744857859122664E-026
   3.3466666666666662E-005     1.3242905379528539E-026
   3.3666666666666667E-005     4.9730355377420301E-026
   3.3866666666666659E-005     8.7293856331608233E-026
   3.4066666666666664E-005     1.1694803755333608E-025
   3.4266666666666668E-005     1.2848133189908701E-025
   3.4466666666666660E-005     1.1254893006346782E-025
   3.4666666666666665E-005     6.3260321385531735E-026
   3.4866666666666656E-005    -1.9207123690562975E-026
   3.5066666666666661E-005    -1.2659448754736314E-025
   3.5266666666666666E-005    -2.4182876176196151E-025
   3.5466666666666657E-005    -3.4015946008495212E-025
   3.5666666666666662E-005    -3.9249116133453649E-025
   3.5866666666666667E-005    -3.7081812008401085E-025
   3.6066666666666658E-005    -2.5514199748082720E-025
   3.6266666666666663E-005    -4.0716026406020244E-026
   3.6466666666666668E-005     2.5596660364581604E-025
   3.6666666666666659E-005     5.9420952616153372E-025
   3.6866666666666664E-005     9.1077156812148012E-025
   3.7066666666666669E-005     1.1271588754367719E-024
   3.7266666666666660E-005     1.1625747857766693E-024
   3.7466666666666665E-005     9.5128401294717095E-025
   3.7666666666666656E-005     4.6179700454889095E-025
   3.7866666666666661E-005    -2.8585580378754154E-025
   3.8066666666666666E-005    -1.2091197485521983E-024
   3.8266666666666657E-005    -2.1623691098371143E-024
   3.8466666666666662E-005    -2.9498719910097881E-024
   3.8666666666666667E-005    -3.3532272214715119E-024
   3.8866666666666658E-005    -3.1713648061036703E-024
   3.9066666666666663E-005    -2.2680216453038170E-024
   3.9266666666666668E-005    -6.1866046713408528E-025
   3.9466666666666659E-005     1.6531547609591330E-024
   3.9666666666666664E-005     4.2602871004263140E-024
   3.9866666666666655E-005     6.7661104711785524E-024
   4.0066666666666660E-005     8.6328890610943748E-024
   4.0266666666666665E-005     9.3033537773552911E-024
   4.0466666666666656E-005     8.3073955852693227E-024
   4.0666666666666661E-005     5.3787636741326103E-024
   4.0866666666666666E-005     5.6107524807856844E-025
   4.1066666666666657E-005    -5.7203720005295173E-024
   4.1266666666666662E-005    -1.2643259110289883E-023
   4.1466666666666667E-005    -1.9045830133045479E-023
   4.1666666666666658E-005    -2.3563565539764744E-023
   4.1866666666666663E-005    -2.4837438639899170E-023
   4.2066666666666668E-005    -2.1771071614710869E-023
   4.2266666666666660E-005    -1.3799971377641789E-023
   4.2466666666666664E-005    -1.1258551841832811E-024
   4.2666666666666656E-005     1.5134588345200043E-023
   4.2866666666666661E-005     3.2932434215298640E-023
   4.3066666666666665E-005     4.9432696981895489E-023
   4.3266666666666657E-005     6.1333632458346063E-023
   4.3466666666666662E-005     6.5340698758070506E-023
   4.3666666666666666E-005     5.8746048782363551E-023
   4.3866666666666658E-005     4.0036865040621138E-023
   4.4066666666666663E-005     9.4355913197583945E-024
   4.4266666666666667E-005    -3.0732865975045376E-023
   4.4466666666666659E-005    -7.5944251501689258E-023
   4.4666666666666664E-005    -1.1972124177803891E-022
   4.4866666666666655E-005    -1.5425576729486366E-022
   4.5066666666666660E-005    -1.7138730180136733E-022
   4.5266666666666665E-005    -1.6385874148807457E-022
   4.5466666666666656E-005    -1.2671225333785235E-022
   4.5666666666666661E-005    -5.8639123419826274E-023
   4.5866666666666666E-005     3.6934637976403300E-023
   4.6066666666666657E-005     1.5125234032585933E-022
   4.6266666666666662E-005     2.7032291700749746E-022
   4.6466666666666667E-005     3.7585571916600574E-022
   4.6666666666666658E-005     4.4709182790428254E-022
   4.6866666666666663E-005     4.6347261926450547E-022
   4.7066666666666668E-005     4.0794913038884217E-022
   4.7266666666666659E-005     2.7059307346854307E-022
   4.7466666666666664E-005     5.2034861962850106E-023
   4.7666666666666655E-005    -2.3384326244678943E-022
   4.7866666666666660E-005    -5.5857900266249694E-022
   4.8066666666666665E-005    -8.7974858671562614E-022
   4.8266666666666656E-005    -1.1439793770767042E-021
   4.8466666666666661E-005    -1.2925569488193359E-021
   4.8666666666666666E-005    -1.2694709154953813E-021
   4.8866666666666657E-005    -1.0313022719072799E-021
   4.9066666666666662E-005    -5.5787299108498586E-022
   4.9266666666666667E-005     1.3787843430084921E-022
   4.9466666666666658E-005     1.0026683123655380E-021
   4.9666666666666663E-005     1.9402844029397139E-021
   4.9866666666666655E-005     2.8154612819632073E-021
   5.0066666666666659E-005     3.4654659061488069E-021
   5.0266666666666664E-005     3.7196894468799664E-021
   5.0466666666666656E-005     3.4262297570150905E-021
   5.0666666666666660E-005     2.4829112497034488E-021
   5.0866666666666665E-005     8.6864768557025813E-022
   5.1066666666666657E-005    -1.3302164868587649E-021
   5.1266666666666661E-005    -3.9046523632843652E-021
   5.1466666666666666E-005    -6.5246209377496367E-021
   5.1666666666666658E-005    -8.7621925584228099E-021
   5.1866666666666662E-005    -1.0138080683814761E-020
   5.2066666666666667E-005    -1.0189932145083478E-020
   5.2266666666666659E-005    -8.5563449471385810E-021
   5.2466666666666664E-005    -5.0661040122915306E-021
   5.2666666666666655E-005     1.8169831967778117E-022
   5.2866666666666660E-005     6.7632467924966298E-021
   5.3066666666666665E-005     1.3917732243272369E-020
   5.3266666666666656E-005     2.0590485153638271E-020
   5.3466666666666661E-005     2.5538358076090838E-020
   5.3666666666666666E-005     2.7494866406977493E-020
   5.3866666666666657E-005     2.5381319775502206E-020
   5.4066666666666662E-005     1.8538453617873079E-020
   5.4266666666666667E-005     6.9431561523462125E-021
   5.4466666666666658E-005    -8.6313574655587829E-021
   5.4666666666666663E-005    -2.6553685119495599E-020
   5.4866666666666668E-005    -4.4405191088037532E-020
   5.5066666666666659E-005    -5.9203151747404293E-020
   5.5266666666666664E-005    -6.7773279268382112E-020
   5.5466666666666655E-005    -6.7241977283530181E-020
   5.5666666666666660E-005    -5.5590905711173505E-020
   5.5866666666666665E-005    -3.2192589895553794E-020
   5.6066666666666656E-005     1.7694035498394984E-021
   5.6266666666666661E-005     4.3093292330051233E-020
   5.6466666666666666E-005     8.6647363035385716E-020
   5.6666666666666657E-005     1.2580292668286362E-019
   5.6866666666666662E-005     1.5321251270739145E-019
   5.7066666666666667E-005     1.6187498072659404E-019
   5.7266666666666658E-005     1.4636786455715364E-019
   5.7466666666666663E-005     1.0407405521383198E-019
   5.7666666666666654E-005     3.6195992195119862E-020
   5.7866666666666659E-005    -5.1655597178126744E-020
   5.8066666666666664E-005    -1.4948203154235387E-019
   5.8266666666666655E-005    -2.4364330939171522E-019
   5.8466666666666660E-005    -3.1834986792050049E-019
   5.8666666666666665E-005    -3.5779746509830082E-019
   5.8866666666666656E-005    -3.4871716747218239E-019
   5.9066666666666661E-005    -2.8300128672002426E-019
   5.9266666666666666E-005    -1.5999099933332209E-019
   5.9466666666666657E-005     1.2009342559581572E-020
   5.9666666666666662E-005     2.1537708737000923E-019
   5.9866666666666667E-005     4.2424232461466545E-019
   6.0066666666666659E-005     6.0706676587811303E-019
   6.0266666666666663E-005     7.3058395988394536E-019
   6.0466666666666655E-005     7.6470872736814938E-019
   6.0666666666666660E-005     6.8780455674696385E-019
   6.0866666666666664E-005     4.9153615578284505E-019
   6.1066666666666656E-005     1.8447466658549087E-019
   6.1266666666666661E-005    -2.0631655160571257E-019
   6.1466666666666665E-005    -6.3629384865417887E-019
   6.1666666666666657E-005    -1.0473052642746938E-018
   6.1866666666666662E-005    -1.3741808827687783E-018
   6.2066666666666666E-005    -1.5534550131443600E-018
   6.2266666666666658E-005    -1.5332160749042954E-018
   6.2466666666666663E-005    -1.2827531266511750E-018
   6.2666666666666668E-005    -8.0050538196668793E-019
   6.2866666666666659E-005    -1.1885949507291108E-019
   6.3066666666666664E-005     6.9539088863862909E-019
   6.3266666666666655E-005     1.5456198549846812E-018
   6.3466666666666660E-005     2.3150125959689887E-018
   6.3666666666666665E-005     2.8805566011569531E-018
   6.3866666666666656E-005     3.1299118511722884E-018
   6.4066666666666661E-005     2.9790649199204338E-018
   6.4266666666666666E-005     2.3882865293756204E-018
   6.4466666666666657E-005     1.3738408081394425E-018
   6.4666666666666662E-005     1.3206093575773941E-020
   6.4866666666666667E-005    -1.5577504586677713E-018
   6.5066666666666658E-005    -3.1562101975920337E-018
   6.5266666666666663E-005    -4.5718111155586392E-018
   6.5466666666666654E-005    -5.5921499816713746E-018
   6.5666666666666659E-005    -6.0313969490074457E-018
   6.5866666666666664E-005    -5.7582569476587606E-018
   6.6066666666666655E-005    -4.7192308307375335E-018
   6.6266666666666660E-005    -2.9534057773190388E-018
   6.6466666666666665E-005    -5.9590504918626390E-019
   6.6666666666666656E-005     2.1314546005985714E-018
   6.6866666666666661E-005     4.9419550009317241E-018
   6.7066666666666666E-005     7.5159632233650473E-018
   6.7266666666666657E-005     9.5391220973972575E-018
   6.7466666666666662E-005     1.0741490329108412E-017
   6.7666666666666667E-005     1.0931874218893617E-017
   6.7866666666666658E-005     1.0021978853807737E-017
   6.8066666666666663E-005     8.0363830785721721E-018
   6.8266666666666655E-005     5.1065391274114000E-018
   6.8466666666666659E-005     1.4497436249303443E-018
   6.8666666666666664E-005    -2.6630901977313027E-018
   6.8866666666666656E-005    -6.9445567823807664E-018
   6.9066666666666660E-005    -1.1124939828224719E-017
   6.9266666666666665E-005    -1.4975469715562125E-017
   6.9466666666666657E-005    -1.8314198969675210E-017
   6.9666666666666661E-005    -2.0991279686696928E-017
   6.9866666666666666E-005    -2.2855044992593233E-017
   7.0066666666666658E-005    -2.3705682792957039E-017
   7.0266666666666662E-005    -2.3248468635535704E-017
   7.0466666666666654E-005    -2.1062513172327545E-017
   7.0666666666666659E-005    -1.6602426446974299E-017
   7.0866666666666664E-005    -9.2485211404981906E-018
   7.1066666666666655E-005     1.5846768419675975E-018
   7.1266666666666660E-005     1.6281501875999651E-017
   7.1466666666666665E-005     3.4812494958057658E-017
   7.1666666666666656E-005     5.6503159161390621E-017
   7.1866666666666661E-005     7.9825040076290406E-017
   7.2066666666666666E-005     1.0226031572343135E-016
   7.2266666666666657E-005     1.2029542064570872E-016
   7.2466666666666662E-005     1.2959420128022563E-016
   7.2666666666666667E-005     1.2538619453782547E-016
   7.2866666666666658E-005     1.0307912526818534E-016
   7.3066666666666663E-005     5.9069212387873022E-017
   7.3266666666666654E-005    -8.3194194687694416E-018
   7.3466666666666659E-005    -9.7878296649929638E-017
   7.3666666666666664E-005    -2.0469064684124441E-016
   7.3866666666666655E-005    -3.1961435658903377E-016
   7.4066666666666660E-005    -4.2924951025152249E-016
   7.4266666666666665E-005    -5.1654615516364918E-016
   7.4466666666666656E-005    -5.6215369129649132E-016
   7.4666666666666661E-005    -5.4652879215584646E-016
   7.4866666666666666E-005    -4.5271163467619697E-016
   7.5066666666666657E-005    -2.6955150656297281E-016
   7.5266666666666662E-005     4.9625840582281840E-018
   7.5466666666666653E-005     3.6072041553303173E-016