  -3.3333333333333335E-005     0.0000000000000000     
  -3.3133333333333337E-005     0.0000000000000000     
  -3.2933333333333332E-005     0.0000000000000000     
  -3.2733333333333334E-005     0.0000000000000000     
  -3.2533333333333336E-005     0.0000000000000000     
  -3.2333333333333338E-005     0.0000000000000000     
  -3.2133333333333333E-005     0.0000000000000000     
  -3.1933333333333335E-005     0.0000000000000000     
  -3.1733333333333337E-005     0.0000000000000000     
  -3.1533333333333332E-005     0.0000000000000000     
  -3.1333333333333334E-005     0.0000000000000000     
  -3.1133333333333336E-005     0.0000000000000000     
  -3.0933333333333338E-005     0.0000000000000000     
  -3.0733333333333333E-005     0.0000000000000000     
  -3.0533333333333335E-005     0.0000000000000000     
  -3.0333333333333337E-005     0.0000000000000000     
  -3.0133333333333335E-005     0.0000000000000000     
  -2.9933333333333334E-005     0.0000000000000000     
  -2.9733333333333336E-005     0.0000000000000000     
  -2.9533333333333334E-005     0.0000000000000000     
  -2.9333333333333336E-005     0.0000000000000000     
  -2.9133333333333334E-005     0.0000000000000000     
  -2.8933333333333336E-005     0.0000000000000000     
  -2.8733333333333335E-005     0.0000000000000000     
  -2.8533333333333333E-005     0.0000000000000000     
  -2.8333333333333335E-005     0.0000000000000000     
  -2.8133333333333337E-005     0.0000000000000000     
  -2.7933333333333336E-005     0.0000000000000000     
  -2.7733333333333334E-005     0.0000000000000000     
  -2.7533333333333336E-005     0.0000000000000000     
  -2.7333333333333335E-005     0.0000000000000000     
  -2.7133333333333333E-005     0.0000000000000000     
  -2.6933333333333335E-005     0.0000000000000000     
  -2.6733333333333337E-005     0.0000000000000000     
  -2.6533333333333336E-005     0.0000000000000000     
  -2.6333333333333334E-005     0.0000000000000000     
  -2.6133333333333336E-005     0.0000000000000000     
  -2.5933333333333335E-005     0.0000000000000000     
  -2.5733333333333333E-005     0.0000000000000000     
  -2.5533333333333335E-005     0.0000000000000000     
  -2.5333333333333337E-005     0.0000000000000000     
  -2.5133333333333336E-005     0.0000000000000000     
  -2.4933333333333334E-005     0.0000000000000000     
  -2.4733333333333336E-005     0.0000000000000000     
  -2.4533333333333334E-005     0.0000000000000000     
  -2.4333333333333333E-005     0.0000000000000000     
  -2.4133333333333335E-005     0.0000000000000000     
  -2.3933333333333337E-005     0.0000000000000000     
  -2.3733333333333335E-005     0.0000000000000000     
  -2.3533333333333334E-005     0.0000000000000000     
  -2.3333333333333336E-005     0.0000000000000000     
  -2.3133333333333338E-005     0.0000000000000000     
  -2.2933333333333336E-005     0.0000000000000000     
  -2.2733333333333335E-005     0.0000000000000000     
  -2.2533333333333337E-005     0.0000000000000000     
  -2.2333333333333335E-005     0.0000000000000000     
  -2.2133333333333334E-005     0.0000000000000000     
  -2.1933333333333336E-005     0.0000000000000000     
  -2.1733333333333338E-005     0.0000000000000000     
  -2.1533333333333336E-005     0.0000000000000000     
  -2.1333333333333335E-005     0.0000000000000000     
  -2.1133333333333337E-005     0.0000000000000000     
  -2.0933333333333335E-005     0.0000000000000000     
  -2.0733333333333334E-005     0.0000000000000000     
  -2.0533333333333336E-005     0.0000000000000000     
  -2.0333333333333337E-005     0.0000000000000000     
  -2.0133333333333336E-005     0.0000000000000000     
  -1.9933333333333334E-005     0.0000000000000000     
  -1.9733333333333336E-005     0.0000000000000000     
  -1.9533333333333335E-005     0.0000000000000000     
  -1.9333333333333333E-005     0.0000000000000000     
  -1.9133333333333335E-005     0.0000000000000000     
  -1.8933333333333337E-005     0.0000000000000000     
  -1.8733333333333336E-005     0.0000000000000000     
  -1.8533333333333334E-005     0.0000000000000000     
  -1.8333333333333336E-005     0.0000000000000000     
  -1.8133333333333335E-005     0.0000000000000000     
  -1.7933333333333337E-005     0.0000000000000000     
  -1.7733333333333335E-005     0.0000000000000000     
  -1.7533333333333337E-005     0.0000000000000000     
  -1.7333333333333336E-005     0.0000000000000000     
  -1.7133333333333334E-005     0.0000000000000000     
  -1.6933333333333336E-005     0.0000000000000000     
  -1.6733333333333335E-005     0.0000000000000000     
  -1.6533333333333337E-005     0.0000000000000000     
  -1.6333333333333335E-005     0.0000000000000000     
  -1.6133333333333337E-005     0.0000000000000000     
  -1.5933333333333336E-005     0.0000000000000000     
  -1.5733333333333334E-005     0.0000000000000000     
  -1.5533333333333336E-005     0.0000000000000000     
  -1.5333333333333334E-005     0.0000000000000000     
  -1.5133333333333336E-005     0.0000000000000000     
  -1.4933333333333335E-005     0.0000000000000000     
  -1.4733333333333337E-005     0.0000000000000000     
  -1.4533333333333335E-005     0.0000000000000000     
  -1.4333333333333337E-005     0.0000000000000000     
  -1.4133333333333336E-005     0.0000000000000000     
  -1.3933333333333334E-005     0.0000000000000000     
  -1.3733333333333336E-005     0.0000000000000000     
  -1.3533333333333335E-005     0.0000000000000000     
  -1.3333333333333337E-005     0.0000000000000000     
  -1.3133333333333335E-005     0.0000000000000000     
  -1.2933333333333337E-005     0.0000000000000000     
  -1.2733333333333336E-005     0.0000000000000000     
  -1.2533333333333338E-005     0.0000000000000000     
  -1.2333333333333336E-005     0.0000000000000000     
  -1.2133333333333335E-005     0.0000000000000000     
  -1.1933333333333337E-005     0.0000000000000000     
  -1.1733333333333335E-005     0.0000000000000000     
  -1.1533333333333337E-005     0.0000000000000000     
  -1.1333333333333336E-005     0.0000000000000000     
  -1.1133333333333337E-005     0.0000000000000000     
  -1.0933333333333336E-005     0.0000000000000000     
  -1.0733333333333334E-005     0.0000000000000000     
  -1.0533333333333336E-005     0.0000000000000000     
  -1.0333333333333335E-005     0.0000000000000000     
  -1.0133333333333337E-005     0.0000000000000000     
  -9.9333333333333354E-006     0.0000000000000000     
  -9.7333333333333373E-006     0.0000000000000000     
  -9.5333333333333358E-006     0.0000000000000000     
  -9.3333333333333343E-006     0.0000000000000000     
  -9.1333333333333362E-006     0.0000000000000000     
  -8.9333333333333348E-006     0.0000000000000000     
  -8.7333333333333367E-006     0.0000000000000000     
  -8.5333333333333352E-006     0.0000000000000000     
  -8.3333333333333371E-006     0.0000000000000000     
  -8.1333333333333356E-006     0.0000000000000000     
  -7.9333333333333376E-006     0.0000000000000000     
  -7.7333333333333361E-006     0.0000000000000000     
  -7.5333333333333346E-006     0.0000000000000000     
  -7.3333333333333365E-006     0.0000000000000000     
  -7.1333333333333351E-006     0.0000000000000000     
  -6.9333333333333370E-006     0.0000000000000000     
  -6.7333333333333355E-006     0.0000000000000000     
  -6.5333333333333374E-006     0.0000000000000000     
  -6.3333333333333359E-006     0.0000000000000000     
  -6.1333333333333379E-006     0.0000000000000000     
  -5.9333333333333364E-006     0.0000000000000000     
  -5.7333333333333349E-006     0.0000000000000000     
  -5.5333333333333368E-006     0.0000000000000000     
  -5.3333333333333354E-006     0.0000000000000000     
  -5.1333333333333373E-006     0.0000000000000000     
  -4.9333333333333358E-006     0.0000000000000000     
  -4.7333333333333377E-006     0.0000000000000000     
  -4.5333333333333362E-006     0.0000000000000000     
  -4.3333333333333348E-006     0.0000000000000000     
  -4.1333333333333367E-006     0.0000000000000000     
  -3.9333333333333352E-006     0.0000000000000000     
  -3.7333333333333371E-006     0.0000000000000000     
  -3.5333333333333356E-006     0.0000000000000000     
  -3.3333333333333376E-006     0.0000000000000000     
  -3.1333333333333361E-006     0.0000000000000000     
  -2.9333333333333346E-006     0.0000000000000000     
  -2.7333333333333365E-006     0.0000000000000000     
  -2.5333333333333384E-006     0.0000000000000000     
  -2.3333333333333336E-006     0.0000000000000000     
  -2.1333333333333355E-006     0.0000000000000000     
  -1.9333333333333374E-006     0.0000000000000000     
  -1.7333333333333393E-006     0.0000000000000000     
  -1.5333333333333345E-006     0.0000000000000000     
  -1.3333333333333364E-006     0.0000000000000000     
  -1.1333333333333383E-006     0.0000000000000000     
  -9.3333333333333343E-007     0.0000000000000000     
  -7.3333333333333535E-007     0.0000000000000000     
  -5.3333333333333726E-007     0.0000000000000000     
  -3.3333333333333918E-007     0.0000000000000000     
  -1.3333333333333432E-007     0.0000000000000000     
   6.6666666666663770E-008     0.0000000000000000     
   2.6666666666666185E-007     0.0000000000000000     
   4.6666666666666672E-007     0.0000000000000000     
   6.6666666666666480E-007     0.0000000000000000     
   8.6666666666666289E-007     0.0000000000000000     
   1.0666666666666610E-006     0.0000000000000000     
   1.2666666666666658E-006     0.0000000000000000     
   1.4666666666666639E-006     0.0000000000000000     
   1.6666666666666620E-006     0.0000000000000000     
   1.8666666666666669E-006     0.0000000000000000     
   2.0666666666666649E-006     0.0000000000000000     
   2.2666666666666630E-006    -1.4205134892571783E-038
   2.4666666666666611E-006    -2.6108390428960332E-038
   2.6666666666666660E-006    -2.6108390428960332E-038
   2.8666666666666641E-006     1.3395199794475146E-038
   3.0666666666666622E-006     7.5026102720111865E-038
   3.2666666666666602E-006     1.4329052556551105E-037
   3.4666666666666651E-006     2.1248951359312545E-037
   3.6666666666666632E-006     2.2232828795006743E-037
   3.8666666666666613E-006     1.3324261021536552E-037
   4.0666666666666661E-006    -8.6634128492141069E-038
   4.2666666666666642E-006    -4.3843243411633717E-037
   4.4666666666666623E-006    -8.7252366801097149E-037
   4.6666666666666604E-006    -1.2957818109999298E-036
   4.8666666666666652E-006    -1.5293178634338706E-036
   5.0666666666666633E-006    -1.3977267451158443E-036
   5.2666666666666614E-006    -7.2448238191899245E-037
   5.4666666666666663E-006     6.0322845179569918E-037
   5.6666666666666644E-006     2.5647745620522412E-036
   5.8666666666666624E-006     4.9388670656286884E-036
   6.0666666666666605E-006     7.2506477501323110E-036
   6.2666666666666654E-006     8.7656765843358491E-036
   6.4666666666666635E-006     8.5583945424646844E-036
   6.6666666666666616E-006     5.6779752816665107E-036
   6.8666666666666664E-006    -5.8291487052443977E-037
   7.0666666666666645E-006    -1.0337095283039649E-035
   7.2666666666666626E-006    -2.2730381585338211E-035
   7.4666666666666607E-006    -3.5649251041726722E-035
   7.6666666666666655E-006    -4.5640706215820241E-035
   7.8666666666666636E-006    -4.8183995576560394E-035
   8.0666666666666617E-006    -3.8422769121475704E-035
   8.2666666666666598E-006    -1.2388470678468777E-035
   8.4666666666666647E-006     3.1381678494138909E-035
   8.6666666666666627E-006     9.0092883180082269E-035
   8.8666666666666608E-006     1.5524159256472328E-034
   9.0666666666666657E-006     2.1203613017880501E-034
   9.2666666666666638E-006     2.4030288926636835E-034
   9.4666666666666619E-006     2.1738054279546739E-034
   9.6666666666666599E-006     1.2319108476164349E-034
   9.8666666666666648E-006    -5.2847534084988915E-035
   1.0066666666666663E-005    -3.0409304171803314E-034
   1.0266666666666661E-005    -5.9990279718910394E-034
   1.0466666666666666E-005    -8.8218187799824096E-034
   1.0666666666666664E-005    -1.0678538739400099E-033
   1.0866666666666662E-005    -1.0594539566129269E-033
   1.1066666666666660E-005    -7.6483131268294234E-034
   1.1266666666666665E-005    -1.2487754033365182E-034
   1.1466666666666663E-005     8.5456069948979426E-034
   1.1666666666666661E-005     2.0734111390612464E-033
   1.1866666666666666E-005     3.3200599996487301E-033
   1.2066666666666664E-005     4.2763551434273854E-033
   1.2266666666666662E-005     4.5539503384259764E-033
   1.2466666666666660E-005     3.7665417741078208E-033
   1.2666666666666665E-005     1.6347482387450470E-033
   1.2866666666666663E-005    -1.8900740606092944E-033
   1.3066666666666661E-005    -6.5082236556634454E-033
   1.3266666666666666E-005    -1.1495054196883545E-032
   1.3466666666666664E-005    -1.5704591302674314E-032
   1.3666666666666662E-005    -1.7688161612554121E-032
   1.3866666666666660E-005    -1.5946876851426112E-032
   1.4066666666666665E-005    -9.3086449899296597E-033
   1.4266666666666663E-005     2.6175373721523059E-033
   1.4466666666666661E-005     1.8998843691192726E-032
   1.4666666666666666E-005     3.7471536110957396E-032
   1.4866666666666664E-005     5.4110256040031719E-032
   1.5066666666666662E-005     6.3799773689255277E-032
   1.5266666666666661E-005     6.1080238121269144E-032
   1.5466666666666665E-005     4.1439458434460306E-032
   1.5666666666666663E-005     2.8947187564052090E-033
   1.5866666666666662E-005    -5.2436134618005879E-032
   1.6066666666666660E-005    -1.1719527038926950E-031
   1.6266666666666665E-005    -1.7855442981010176E-031
   1.6466666666666663E-005    -2.1932237240297545E-031
   1.6666666666666661E-005    -2.2063641051798565E-031
   1.6866666666666666E-005    -1.6616339104381842E-031
   1.7066666666666664E-005    -4.7309630368653137E-032
   1.7266666666666662E-005     1.3152111408228879E-031
   1.7466666666666660E-005     3.4896334204584153E-031
   1.7666666666666665E-005     5.6553512819755388E-031
   1.7866666666666663E-005     7.2665002961334775E-031
   1.8066666666666661E-005     7.7058036939340812E-031
   1.8266666666666666E-005     6.4117334663624269E-031
   1.8466666666666664E-005     3.0383512650251922E-031
   1.8666666666666662E-005    -2.3805615534236920E-031
   1.8866666666666660E-005    -9.3024616839328231E-031
   1.9066666666666665E-005    -1.6626094296900446E-030
   1.9266666666666663E-005    -2.2759671475423276E-030
   1.9466666666666661E-005    -2.5829701607906518E-030
   1.9666666666666666E-005    -2.4025637513857730E-030
   1.9866666666666664E-005    -1.6040861739004581E-030
   2.0066666666666662E-005    -1.5353014166654815E-031
   2.0266666666666660E-005     1.8482040009617126E-030
   2.0466666666666665E-005     4.1461841139943748E-030
   2.0666666666666663E-005     6.3410664135333655E-030
   2.0866666666666661E-005     7.9328414940383397E-030
   2.1066666666666659E-005     8.3975337830652915E-030
   2.1266666666666664E-005     7.2879378336291976E-030
   2.1466666666666662E-005     4.3422486723894948E-030
   2.1666666666666660E-005    -4.2023029666190153E-031
   2.1866666666666665E-005    -6.6376099720876211E-030
   2.2066666666666663E-005    -1.3594835541610149E-029
   2.2266666666666661E-005    -2.0271449356653535E-029
   2.2466666666666659E-005    -2.5443391282192396E-029
   2.2666666666666664E-005    -2.7823530739104595E-029
   2.2866666666666662E-005    -2.6219252160288794E-029
   2.3066666666666660E-005    -1.9686678344859577E-029
   2.3266666666666665E-005    -7.6709774638615914E-030
   2.3466666666666663E-005     9.8620868967321828E-030
   2.3666666666666661E-005     3.2282624302282210E-029
   2.3866666666666660E-005     5.8114406441150135E-029
   2.4066666666666664E-005     8.4800404714195638E-029
   2.4266666666666662E-005     1.0844148367104062E-028
   2.4466666666666661E-005     1.2359707177472341E-028
   2.4666666666666665E-005     1.2331269618137249E-028
   2.4866666666666663E-005     9.9602566617490150E-029
   2.5066666666666662E-005     4.4630982937557250E-029
   2.5266666666666660E-005    -4.7234105961577495E-029
   2.5466666666666665E-005    -1.7650777198794722E-028
   2.5666666666666663E-005    -3.3513391036949088E-028
   2.5866666666666661E-005    -5.0320269067537072E-028
   2.6066666666666666E-005    -6.4695212764624101E-028
   2.6266666666666664E-005    -7.1944653816540705E-028
   2.6466666666666662E-005    -6.6532723265264519E-028
   2.6666666666666660E-005    -4.3060991328429510E-028
   2.6866666666666665E-005     2.2440947749062225E-029
   2.7066666666666663E-005     6.9677824642347207E-028
   2.7266666666666661E-005     1.5415807720706249E-027
   2.7466666666666666E-005     2.4377677827095098E-027
   2.7666666666666664E-005     3.1942141314085178E-027
   2.7866666666666662E-005     3.5609527929066463E-027
   2.8066666666666667E-005     3.2640664549334762E-027
   2.8266666666666658E-005     2.0633488977791539E-027
   2.8466666666666663E-005    -1.7172838423795586E-028
   2.8666666666666668E-005    -3.3790633467268492E-027
   2.8866666666666659E-005    -7.2321673862453950E-027
   2.9066666666666664E-005    -1.1102881358803440E-026
   2.9266666666666669E-005    -1.4083017591685628E-026
   2.9466666666666660E-005    -1.5084752304031739E-026
   2.9666666666666665E-005    -1.3027977760710745E-026
   2.9866666666666656E-005    -7.1042640675227054E-027
   3.0066666666666661E-005     2.9162001735533927E-027
   3.0266666666666666E-005     1.6392625136617867E-026
   3.0466666666666657E-005     3.1613770258567154E-026
   3.0666666666666662E-005     4.5775083835839923E-026
   3.0866666666666667E-005     5.5207382746002765E-026
   3.1066666666666658E-005     5.5899078174413507E-026
   3.1266666666666663E-005     4.4299122000683499E-026
   3.1466666666666668E-005     1.8315729356590698E-026
   3.1666666666666659E-005    -2.1651948465774709E-026
   3.1866666666666664E-005    -7.1879156790991984E-026
   3.2066666666666656E-005    -1.2494409192602763E-025
   3.2266666666666660E-005    -1.7007192771508536E-025
   3.2466666666666665E-005    -1.9436836288377840E-025
   3.2666666666666657E-005    -1.8497083548320351E-025
   3.2866666666666661E-005    -1.3194353147853723E-025
   3.3066666666666666E-005    -3.1512423202661631E-026
   3.3266666666666658E-005     1.1097652073818440E-025
   3.3466666666666662E-005     2.7913446235602563E-025
   3.3666666666666667E-005     4.4541576551010430E-025
   3.3866666666666659E-005     5.7343053548755966E-025
   3.4066666666666664E-005     6.2295645571249919E-025
   3.4266666666666668E-005     5.5740867189490775E-025
   3.4466666666666660E-005     3.5290634297767571E-025
   3.4666666666666665E-005     7.4557093045184437E-027
   3.4866666666666656E-005    -4.5170870616627862E-025
   3.5066666666666661E-005    -9.6477619683200537E-025
   3.5266666666666666E-005    -1.4419339995349730E-024
   3.5466666666666657E-005    -1.7730861718484018E-024
   3.5666666666666662E-005    -1.8447638486338196E-024
   3.5866666666666667E-005    -1.5627537664111338E-024
   3.6066666666666658E-005    -8.7733520561562177E-025
   3.6266666666666663E-005     1.9341336047634686E-025
   3.6466666666666668E-005     1.5476373179224493E-024
   3.6666666666666659E-005     2.9964171510005435E-024
   3.6866666666666664E-005     4.2773545005412232E-024
   3.7066666666666669E-005     5.0868575290691532E-024
   3.7266666666666660E-005     5.1296066903839851E-024
   3.7466666666666665E-005     4.1797660956781423E-024
   3.7666666666666656E-005     2.1447258412613937E-024
   3.7866666666666661E-005    -8.8071853143050154E-025
   3.8066666666666666E-005    -4.5829773590246633E-024
   3.8266666666666657E-005    -8.4330682272191769E-024
   3.8466666666666662E-005    -1.1732878915785006E-023
   3.8666666666666667E-005    -1.3705913914190478E-023
   3.8866666666666658E-005    -1.3625850843197787E-023
   3.9066666666666663E-005    -1.0967335161200517E-023
   3.9266666666666668E-005    -5.5555359645095134E-024
   3.9466666666666659E-005     2.3141814467423719E-024
   3.9666666666666664E-005     1.1815970423792840E-023
   3.9866666666666655E-005     2.1617522994953219E-023
   4.0066666666666660E-005     3.0003147549610594E-023
   4.0266666666666665E-005     3.5095516060963622E-023
   4.0466666666666656E-005     3.5157586792430032E-023
   4.0666666666666661E-005     2.8937712011019096E-023
   4.0866666666666666E-005     1.6005484473676799E-023
   4.1066666666666657E-005    -2.9832567817339676E-024
   4.1266666666666662E-005    -2.6153891296253805E-023
   4.1466666666666667E-005    -5.0463791827560906E-023
   4.1666666666666658E-005    -7.1965723034072091E-023
   4.1866666666666663E-005    -8.6282652317845124E-023
   4.2066666666666668E-005    -8.9256979785777668E-023
   4.2266666666666660E-005    -7.7700943763420583E-023
   4.2466666666666664E-005    -5.0144672347850040E-023
   4.2666666666666656E-005    -7.4589670042341671E-024
   4.2866666666666661E-005     4.6772910444979907E-023
   4.3066666666666665E-005     1.0624429158614521E-022
   4.3266666666666657E-005     1.6234906366387329E-022
   4.3466666666666662E-005     2.0506175436133496E-022
   4.3666666666666666E-005     2.2422981218075719E-022
   4.3866666666666658E-005     2.1116368812652811E-022
   4.4066666666666663E-005     1.6034417051781046E-022
   4.4266666666666667E-005     7.1012867412986493E-023
   4.4466666666666659E-005    -5.1618390736547725E-023
   4.4666666666666664E-005    -1.9580404880912119E-022
   4.4866666666666655E-005    -3.4357548043726400E-022
   4.5066666666666660E-005    -4.7207885192675152E-022
   4.5266666666666665E-005    -5.5598002783504304E-022
   4.5466666666666656E-005    -5.7083030282139238E-022
   4.5666666666666661E-005    -4.9712115932145840E-022
   4.5866666666666666E-005    -3.2458427892190508E-022
   4.6066666666666657E-005    -5.6141053368481000E-023
   4.6266666666666662E-005     2.8919936134925208E-022
   4.6466666666666667E-005     6.7522636272636442E-022
   4.6666666666666658E-005     1.0498557755270987E-021
   4.6866666666666663E-005     1.3493581651695166E-021
   4.7066666666666668E-005     1.5056083621593962E-021
   4.7266666666666659E-005     1.4560237715879222E-021
   4.7466666666666664E-005     1.1553113071822188E-021
   4.7666666666666655E-005     5.8758389091276104E-022
   4.7866666666666660E-005    -2.2308107924146160E-022
   4.8066666666666665E-005    -1.2058738328406772E-021
   4.8266666666666656E-005    -2.2425096627479160E-021
   4.8466666666666661E-005    -3.1743536643894770E-021
   4.8666666666666666E-005    -3.8184155532514443E-021
   4.8866666666666657E-005    -3.9919372854703990E-021
   4.9066666666666662E-005    -3.5436930390686717E-021
   4.9266666666666667E-005    -2.3883753705121131E-021
   4.9466666666666658E-005    -5.3885328960284311E-022
   4.9666666666666663E-005     1.8699994963700653E-021
   4.9866666666666655E-005     4.5724633830145542E-021
   5.0066666666666659E-005     7.1837744299260786E-021
   5.0266666666666664E-005     9.2360361868578495E-021
   5.0466666666666656E-005     1.0238268896542412E-020
   5.0666666666666660E-005     9.7562423192742059E-021
   5.0866666666666665E-005     7.5029449773365053E-021
   5.1066666666666657E-005     3.4262010803434639E-021
   5.1266666666666661E-005    -2.2230628404172504E-021
   5.1466666666666666E-005    -8.8591600981990457E-021
   5.1666666666666658E-005    -1.5581572118092972E-020
   5.1866666666666662E-005    -2.1255816247117934E-020
   5.2066666666666667E-005    -2.4655840373027719E-020
   5.2266666666666659E-005    -2.4657438188703139E-020
   5.2466666666666664E-005    -2.0460286602104997E-020
   5.2666666666666655E-005    -1.1805547551750953E-020
   5.2866666666666660E-005     8.5114421261327361E-022
   5.3066666666666665E-005     1.6252987512718876E-020
   5.3266666666666656E-005     3.2377358133708559E-020
   5.3466666666666661E-005     4.6615162422012067E-020
   5.3666666666666666E-005     5.6095104606267254E-020
   5.3866666666666657E-005     5.8127745865251465E-020
   5.4066666666666662E-005     5.0716886123372572E-020
   5.4266666666666667E-005     3.3062053654575060E-020
   5.4466666666666658E-005     5.9604090390835293E-021
   5.4666666666666663E-005    -2.7985274650296334E-020
   5.4866666666666668E-005    -6.4431476056016416E-020
   5.5066666666666659E-005    -9.7678449813936826E-020
   5.5266666666666664E-005    -1.2137391733991914E-019
   5.5466666666666655E-005    -1.2947846496065178E-019
   5.5666666666666660E-005    -1.1737651533096835E-019
   5.5866666666666665E-005    -8.2967133092560727E-020
   5.6066666666666656E-005    -2.7539036559218117E-020
   5.6266666666666661E-005     4.3767134336552243E-020
   5.6466666666666666E-005     1.2207218702388461E-019
   5.6666666666666657E-005     1.9554092146477256E-019
   5.6866666666666662E-005     2.5082796754780354E-019
   5.7066666666666667E-005     2.7506373911014783E-019
   5.7266666666666658E-005     2.5813936528337146E-019
   5.7466666666666663E-005     1.9495218858848501E-019
   5.7666666666666654E-005     8.7217568358421782E-020
   5.7866666666666659E-005    -5.5544783929675139E-020
   5.8066666666666664E-005    -2.1616999168592959E-019
   5.8266666666666655E-005    -3.7133244051574702E-019
   5.8466666666666660E-005    -4.9434014296303496E-019
   5.8666666666666665E-005    -5.5899573326626496E-019
   5.8866666666666656E-005    -5.4405690310234557E-019
   5.9066666666666661E-005    -4.3764678644108726E-019
   5.9266666666666666E-005    -2.4086274176261822E-019
   5.9466666666666657E-005     3.0158042243751589E-020
   5.9666666666666662E-005     3.4432096101040447E-019
   5.9866666666666667E-005     6.5814754684752358E-019
   6.0066666666666659E-005     9.2082138700194003E-019
   6.0266666666666663E-005     1.0812726089485713E-018
   6.0466666666666655E-005     1.0964580940313964E-018
   6.0666666666666660E-005     9.3966538853651056E-019
   6.0866666666666664E-005     6.0748123506379039E-019
   6.1066666666666656E-005     1.2407621300355331E-019
   6.1266666666666661E-005    -4.5830769019113051E-019
   6.1466666666666665E-005    -1.0633272357519631E-018
   6.1666666666666657E-005    -1.5989996810691063E-018
   6.1866666666666662E-005    -1.9699668179468346E-018
   6.2066666666666666E-005    -2.0921544225155645E-018
   6.2266666666666658E-005    -1.9078339734155265E-018
   6.2466666666666663E-005    -1.3987352222645321E-018
   6.2666666666666668E-005    -5.9484072623184958E-019
   6.2866666666666659E-005     4.2316150974678835E-019
   6.3066666666666664E-005     1.5290668335541528E-018
   6.3266666666666655E-005     2.5642586581434670E-018
   6.3466666666666660E-005     3.3577932856905940E-018
   6.3666666666666665E-005     3.7513004738749328E-018
   6.3866666666666656E-005     3.6254912657892926E-018
   6.4066666666666661E-005     2.9243527126643388E-018
   6.4266666666666666E-005     1.6729502482168064E-018
   6.4466666666666657E-005    -1.4827367576377875E-020
   6.4666666666666662E-005    -1.9411825869912143E-018
   6.4866666666666667E-005    -3.8429955127279673E-018
   6.5066666666666658E-005    -5.4231313399278019E-018
   6.5266666666666663E-005    -6.3914264834405384E-018
   6.5466666666666654E-005    -6.5104288222654797E-018
   6.5666666666666659E-005    -5.6395379181936187E-018
   6.5866666666666664E-005    -3.7705770908698686E-018
   6.6066666666666655E-005    -1.0481509530534527E-018
   6.6266666666666660E-005     2.2304677063308625E-018
   6.6466666666666665E-005     5.6388116536157971E-018
   6.6666666666666656E-005     8.6678039545390128E-018
   6.6866666666666661E-005     1.0791683648678130E-017
   6.7066666666666666E-005     1.1546027699573413E-017
   6.7266666666666657E-005     1.0607783200534116E-017
   6.7466666666666662E-005     7.8654693660452404E-018
   6.7666666666666667E-005     3.4674929445516108E-018
   6.7866666666666658E-005    -2.1618840937925596E-018
   6.8066666666666663E-005    -8.3460414496038482E-018
   6.8266666666666655E-005    -1.4221107466693366E-017
   6.8466666666666659E-005    -1.8838879632217595E-017
   6.8666666666666664E-005    -2.1297468862239557E-017
   6.8866666666666656E-005    -2.0883959619663073E-017
   6.9066666666666660E-005    -1.7209262687955451E-017
   6.9266666666666665E-005    -1.0313735382022540E-017
   6.9466666666666657E-005    -7.2347067190508388E-019
   6.9666666666666661E-005     1.0558149055058484E-017
   6.9866666666666666E-005     2.2131379416256316E-017
   7.0066666666666658E-005     3.2351281911132678E-017
   7.0266666666666662E-005     3.9535838530800805E-017
   7.0466666666666654E-005     4.2207205084151007E-017
   7.0666666666666659E-005     3.9333963447946014E-017
   7.0866666666666664E-005     3.0537784371061221E-017
   7.1066666666666655E-005     1.6228693011333040E-017
   7.1266666666666660E-005    -2.3604330834042754E-018
   7.1466666666666665E-005    -2.3257488212934982E-017
   7.1666666666666656E-005    -4.3953740699275072E-017
   7.1866666666666661E-005    -6.1707554582447657E-017
   7.2066666666666666E-005    -7.3913028037141207E-017
   7.2266666666666657E-005    -7.8482565646786245E-017
   7.2466666666666662E-005    -7.4184131519821787E-017
   7.2666666666666667E-005    -6.0874563853272057E-017
   7.2866666666666658E-005    -3.9581048914360504E-017
   7.3066666666666663E-005    -1.2403135706688609E-017
   7.3266666666666654E-005     1.7764231395807078E-017
   7.3466666666666659E-005     4.7654507055167915E-017
   7.3666666666666664E-005     7.4137412358824792E-017
   7.3866666666666655E-005     9.4724508437171159E-017
   7.4066666666666660E-005     1.0797489629397640E-016
   7.4266666666666665E-005     1.1370860128028366E-016
   7.4466666666666656E-005     1.1295910947086162E-016
   7.4666666666666661E-005     1.0763739336916496E-016
   7.4866666666666666E-005     9.9934045612915824E-017
   7.5066666666666657E-005     9.1545858483921787E-017
   7.5266666666666662E-005     8.2868171375423991E-017
   7.5466666666666653E-005     7.2334092449010187E-017