  -3.3333333333333335E-005     0.0000000000000000     
  -3.3133333333333337E-005     0.0000000000000000     
  -3.2933333333333332E-005     0.0000000000000000     
  -3.2733333333333334E-005     0.0000000000000000     
  -3.2533333333333336E-005     0.0000000000000000     
  -3.2333333333333338E-005     0.0000000000000000     
  -3.2133333333333333E-005     0.0000000000000000     
  -3.1933333333333335E-005     0.0000000000000000     
  -3.1733333333333337E-005     0.0000000000000000     
  -3.1533333333333332E-005     0.0000000000000000     
  -3.1333333333333334E-005     0.0000000000000000     
  -3.1133333333333336E-005     0.0000000000000000     
  -3.0933333333333338E-005     0.0000000000000000     
  -3.0733333333333333E-005     0.0000000000000000     
  -3.0533333333333335E-005     0.0000000000000000     
  -3.0333333333333337E-005     0.0000000000000000     
  -3.0133333333333335E-005     0.0000000000000000     
  -2.9933333333333334E-005     0.0000000000000000     
  -2.9733333333333336E-005     0.0000000000000000     
  -2.9533333333333334E-005     0.0000000000000000     
  -2.9333333333333336E-005     0.0000000000000000     
  -2.9133333333333334E-005     0.0000000000000000     
  -2.8933333333333336E-005     0.0000000000000000     
  -2.8733333333333335E-005     0.0000000000000000     
  -2.8533333333333333E-005     0.0000000000000000     
  -2.8333333333333335E-005     0.0000000000000000     
  -2.8133333333333337E-005     0.0000000000000000     
  -2.7933333333333336E-005     0.0000000000000000     
  -2.7733333333333334E-005     0.0000000000000000     
  -2.7533333333333336E-005     0.0000000000000000     
  -2.7333333333333335E-005     0.0000000000000000     
  -2.7133333333333333E-005     0.0000000000000000     
  -2.6933333333333335E-005     0.0000000000000000     
  -2.6733333333333337E-005     0.0000000000000000     
  -2.6533333333333336E-005     0.0000000000000000     
  -2.6333333333333334E-005     0.0000000000000000     
  -2.6133333333333336E-005     0.0000000000000000     
  -2.5933333333333335E-005     0.0000000000000000     
  -2.5733333333333333E-005     0.0000000000000000     
  -2.5533333333333335E-005     0.0000000000000000     
  -2.5333333333333337E-005     0.0000000000000000     
  -2.5133333333333336E-005     0.0000000000000000     
  -2.4933333333333334E-005     0.0000000000000000     
  -2.4733333333333336E-005     0.0000000000000000     
  -2.4533333333333334E-005     0.0000000000000000     
  -2.4333333333333333E-005     0.0000000000000000     
  -2.4133333333333335E-005     0.0000000000000000     
  -2.3933333333333337E-005     0.0000000000000000     
  -2.3733333333333335E-005     0.0000000000000000     
  -2.3533333333333334E-005     0.0000000000000000     
  -2.3333333333333336E-005     0.0000000000000000     
  -2.3133333333333338E-005     0.0000000000000000     
  -2.2933333333333336E-005     0.0000000000000000     
  -2.2733333333333335E-005     0.0000000000000000     
  -2.2533333333333337E-005     0.0000000000000000     
  -2.2333333333333335E-005     0.0000000000000000     
  -2.2133333333333334E-005     0.0000000000000000     
  -2.1933333333333336E-005     0.0000000000000000     
  -2.1733333333333338E-005     0.0000000000000000     
  -2.1533333333333336E-005     0.0000000000000000     
  -2.1333333333333335E-005     0.0000000000000000     
  -2.1133333333333337E-005     0.0000000000000000     
  -2.0933333333333335E-005     0.0000000000000000     
  -2.0733333333333334E-005     0.0000000000000000     
  -2.0533333333333336E-005     0.0000000000000000     
  -2.0333333333333337E-005     0.0000000000000000     
  -2.0133333333333336E-005     0.0000000000000000     
  -1.9933333333333334E-005     0.0000000000000000     
  -1.9733333333333336E-005     0.0000000000000000     
  -1.9533333333333335E-005     0.0000000000000000     
  -1.9333333333333333E-005     0.0000000000000000     
  -1.9133333333333335E-005     0.0000000000000000     
  -1.8933333333333337E-005     0.0000000000000000     
  -1.8733333333333336E-005     0.0000000000000000     
  -1.8533333333333334E-005     0.0000000000000000     
  -1.8333333333333336E-005     0.0000000000000000     
  -1.8133333333333335E-005     0.0000000000000000     
  -1.7933333333333337E-005     0.0000000000000000     
  -1.7733333333333335E-005     0.0000000000000000     
  -1.7533333333333337E-005     0.0000000000000000     
  -1.7333333333333336E-005     0.0000000000000000     
  -1.7133333333333334E-005     0.0000000000000000     
  -1.6933333333333336E-005     0.0000000000000000     
  -1.6733333333333335E-005     0.0000000000000000     
  -1.6533333333333337E-005     0.0000000000000000     
  -1.6333333333333335E-005     0.0000000000000000     
  -1.6133333333333337E-005     0.0000000000000000     
  -1.5933333333333336E-005     0.0000000000000000     
  -1.5733333333333334E-005     0.0000000000000000     
  -1.5533333333333336E-005     0.0000000000000000     
  -1.5333333333333334E-005     0.0000000000000000     
  -1.5133333333333336E-005     0.0000000000000000     
  -1.4933333333333335E-005     0.0000000000000000     
  -1.4733333333333337E-005     0.0000000000000000     
  -1.4533333333333335E-005     0.0000000000000000     
  -1.4333333333333337E-005     0.0000000000000000     
  -1.4133333333333336E-005     0.0000000000000000     
  -1.3933333333333334E-005     0.0000000000000000     
  -1.3733333333333336E-005     0.0000000000000000     
  -1.3533333333333335E-005     0.0000000000000000     
  -1.3333333333333337E-005     0.0000000000000000     
  -1.3133333333333335E-005     0.0000000000000000     
  -1.2933333333333337E-005     0.0000000000000000     
  -1.2733333333333336E-005     0.0000000000000000     
  -1.2533333333333338E-005     0.0000000000000000     
  -1.2333333333333336E-005     0.0000000000000000     
  -1.2133333333333335E-005     0.0000000000000000     
  -1.1933333333333337E-005     0.0000000000000000     
  -1.1733333333333335E-005     0.0000000000000000     
  -1.1533333333333337E-005     0.0000000000000000     
  -1.1333333333333336E-005     0.0000000000000000     
  -1.1133333333333337E-005     0.0000000000000000     
  -1.0933333333333336E-005     0.0000000000000000     
  -1.0733333333333334E-005     0.0000000000000000     
  -1.0533333333333336E-005     0.0000000000000000     
  -1.0333333333333335E-005     0.0000000000000000     
  -1.0133333333333337E-005     0.0000000000000000     
  -9.9333333333333354E-006     0.0000000000000000     
  -9.7333333333333373E-006     0.0000000000000000     
  -9.5333333333333358E-006     0.0000000000000000     
  -9.3333333333333343E-006     0.0000000000000000     
  -9.1333333333333362E-006     0.0000000000000000     
  -8.9333333333333348E-006     0.0000000000000000     
  -8.7333333333333367E-006     0.0000000000000000     
  -8.5333333333333352E-006     0.0000000000000000     
  -8.3333333333333371E-006     0.0000000000000000     
  -8.1333333333333356E-006     0.0000000000000000     
  -7.9333333333333376E-006     0.0000000000000000     
  -7.7333333333333361E-006     0.0000000000000000     
  -7.5333333333333346E-006     0.0000000000000000     
  -7.3333333333333365E-006     0.0000000000000000     
  -7.1333333333333351E-006     0.0000000000000000     
  -6.9333333333333370E-006     0.0000000000000000     
  -6.7333333333333355E-006     0.0000000000000000     
  -6.5333333333333374E-006     0.0000000000000000     
  -6.3333333333333359E-006     0.0000000000000000     
  -6.1333333333333379E-006     0.0000000000000000     
  -5.9333333333333364E-006     0.0000000000000000     
  -5.7333333333333349E-006     0.0000000000000000     
  -5.5333333333333368E-006     0.0000000000000000     
  -5.3333333333333354E-006     0.0000000000000000     
  -5.1333333333333373E-006     0.0000000000000000     
  -4.9333333333333358E-006     0.0000000000000000     
  -4.7333333333333377E-006     0.0000000000000000     
  -4.5333333333333362E-006     0.0000000000000000     
  -4.3333333333333348E-006     0.0000000000000000     
  -4.1333333333333367E-006     0.0000000000000000     
  -3.9333333333333352E-006     0.0000000000000000     
  -3.7333333333333371E-006     0.0000000000000000     
  -3.5333333333333356E-006     0.0000000000000000     
  -3.3333333333333376E-006     0.0000000000000000     
  -3.1333333333333361E-006     0.0000000000000000     
  -2.9333333333333346E-006     0.0000000000000000     
  -2.7333333333333365E-006     0.0000000000000000     
  -2.5333333333333384E-006     0.0000000000000000     
  -2.3333333333333336E-006     0.0000000000000000     
  -2.1333333333333355E-006     0.0000000000000000     
  -1.9333333333333374E-006     0.0000000000000000     
  -1.7333333333333393E-006     0.0000000000000000     
  -1.5333333333333345E-006     0.0000000000000000     
  -1.3333333333333364E-006     0.0000000000000000     
  -1.1333333333333383E-006     0.0000000000000000     
  -9.3333333333333343E-007     0.0000000000000000     
  -7.3333333333333535E-007     0.0000000000000000     
  -5.3333333333333726E-007     0.0000000000000000     
  -3.3333333333333918E-007     0.0000000000000000     
  -1.3333333333333432E-007     0.0000000000000000     
   6.6666666666663770E-008     0.0000000000000000     
   2.6666666666666185E-007     0.0000000000000000     
   4.6666666666666672E-007     0.0000000000000000     
   6.6666666666666480E-007     0.0000000000000000     
   8.6666666666666289E-007     0.0000000000000000     
   1.0666666666666610E-006     0.0000000000000000     
   1.2666666666666658E-006     1.9087009311152795E-038
   1.4666666666666639E-006     4.9040620179457463E-038
   1.6666666666666620E-006     8.3919751709611468E-038
   1.8666666666666669E-006     1.1160334454491626E-037
   2.0666666666666649E-006     9.6080556094653669E-038
   2.2666666666666630E-006     4.2771841434377177E-038
   2.4666666666666611E-006    -5.8870891457317916E-038
   2.6666666666666660E-006    -2.0681394092175393E-037
   2.8666666666666641E-006    -3.8763588046239743E-037
   3.0666666666666622E-006    -5.7299565042525783E-037
   3.2666666666666602E-006    -7.5165272957355977E-037
   3.4666666666666651E-006    -8.5028916438404019E-037
   3.6666666666666632E-006    -8.3028669379263631E-037
   3.8666666666666613E-006    -6.4028281893202460E-037
   4.0666666666666661E-006    -2.3619432683115264E-037
   4.2666666666666642E-006     4.1187560856061440E-037
   4.4666666666666623E-006     1.3097737201142745E-036
   4.6666666666666604E-006     2.4284759777251007E-036
   4.8666666666666652E-006     3.6881831197918593E-036
   5.0666666666666633E-006     4.9455667520593393E-036
   5.2666666666666614E-006     5.9729347523676694E-036
   5.4666666666666663E-006     6.4705984806959611E-036
   5.6666666666666644E-006     6.0706147168983403E-036
   5.8666666666666624E-006     4.3747101332931286E-036
   6.0666666666666605E-006     1.0163132127752102E-036
   6.2666666666666654E-006    -4.2495871396371205E-036
   6.4666666666666635E-006    -1.1434803533686490E-035
   6.6666666666666616E-006    -2.0198046477374153E-035
   6.8666666666666664E-006    -2.9737596394029727E-035
   7.0666666666666645E-006    -3.8723556200126420E-035
   7.2666666666666626E-006    -4.5304252526349165E-035
   7.4666666666666607E-006    -4.7210671330811415E-035
   7.6666666666666655E-006    -4.1981971439308106E-035
   7.8666666666666636E-006    -2.7315492580047807E-035
   8.0666666666666617E-006    -1.5236674692933060E-036
   8.2666666666666598E-006     3.5944969948933218E-035
   8.4666666666666647E-006     8.3987820107617290E-035
   8.6666666666666627E-006     1.3941387107570071E-034
   8.8666666666666608E-006     1.9668695198082472E-034
   9.0666666666666657E-006     2.4792512065311142E-034
   9.2666666666666638E-006     2.8321472380286867E-034
   9.4666666666666619E-006     2.9126467901296758E-034
   9.6666666666666599E-006     2.6039057243623464E-034
   9.8666666666666648E-006     1.7978974874185724E-034
   1.0066666666666663E-005     4.1058097738380950E-035
   1.0266666666666661E-005    -1.6009440977045193E-034
   1.0466666666666666E-005    -4.2194796757823145E-034
   1.0666666666666664E-005    -7.3470541285228258E-034
   1.0866666666666662E-005    -1.0782745395245533E-033
   1.1066666666666660E-005    -1.4200158183990434E-033
   1.1266666666666665E-005    -1.7127663498220992E-033
   1.1466666666666663E-005    -1.8937511538754604E-033
   1.1666666666666661E-005    -1.8853608792754740E-033
   1.1866666666666666E-005    -1.5991265354823084E-033
   1.2066666666666664E-005    -9.4440951835939964E-034
   1.2266666666666662E-005     1.5686377476885804E-034
   1.2466666666666660E-005     1.7488055372503720E-033
   1.2666666666666665E-005     3.8142958647679916E-033
   1.2866666666666663E-005     6.2446822303129041E-033
   1.3066666666666661E-005     8.8117818949363104E-033
   1.3266666666666666E-005     1.1149964320312646E-032
   1.3466666666666664E-005     1.2757807697419278E-032
   1.3666666666666662E-005     1.3028867878511267E-032
   1.3866666666666660E-005     1.1318801308605220E-032
   1.4066666666666665E-005     7.0508325826869826E-033
   1.4266666666666663E-005    -1.4651618728038234E-034
   1.4466666666666661E-005    -1.0285488142302673E-032
   1.4666666666666666E-005    -2.2875051006708604E-032
   1.4866666666666664E-005    -3.6820423912565176E-032
   1.5066666666666662E-005    -5.0402041560927730E-032
   1.5266666666666661E-005    -6.1364084742162202E-032
   1.5466666666666665E-005    -6.7127803907944567E-032
   1.5666666666666663E-005    -6.5121928592757907E-032
   1.5866666666666662E-005    -5.3194587083043435E-032
   1.6066666666666660E-005    -3.0044897984312528E-032
   1.6266666666666665E-005     4.4043778658334561E-033
   1.6466666666666663E-005     4.8772209827304998E-032
   1.6666666666666661E-005     1.0017974280730322E-031
   1.6866666666666666E-005     1.5442004966483816E-031
   1.7066666666666664E-005     2.0629418043371591E-031
   1.7266666666666662E-005     2.5001509414023377E-031
   1.7466666666666660E-005     2.7954743838402138E-031
   1.7666666666666665E-005     2.8876187999136011E-031
   1.7866666666666663E-005     2.7135024607799724E-031
   1.8066666666666661E-005     2.2057669540496388E-031
   1.8266666666666666E-005     1.2910348660589610E-031
   1.8466666666666664E-005    -1.0713263026194381E-032
   1.8666666666666662E-005    -2.0558013814525242E-031
   1.8866666666666660E-005    -4.5866331956090639E-031
   1.9066666666666665E-005    -7.6548159211705539E-031
   1.9266666666666663E-005    -1.1086423884187069E-030
   1.9466666666666661E-005    -1.4524261497065202E-030
   1.9666666666666666E-005    -1.7389210183126585E-030
   1.9866666666666664E-005    -1.8879285630138529E-030
   2.0066666666666662E-005    -1.8029484088505352E-030
   2.0266666666666660E-005    -1.3849597328958777E-030
   2.0466666666666665E-005    -5.5429707306527458E-031
   2.0666666666666663E-005     7.2127656281709488E-031
   2.0866666666666661E-005     2.3968796249424849E-030
   2.1066666666666659E-005     4.3263563649245698E-030
   2.1266666666666664E-005     6.2524728837751681E-030
   2.1466666666666662E-005     7.8201196731956160E-030
   2.1666666666666660E-005     8.6185003899464232E-030
   2.1866666666666665E-005     8.2527459809649049E-030
   2.2066666666666663E-005     6.4374960707527885E-030
   2.2266666666666661E-005     3.0959999059979929E-030
   2.2466666666666659E-005    -1.5595306121850824E-030
   2.2666666666666664E-005    -6.9945329390311856E-030
   2.2866666666666662E-005    -1.2391181988515044E-029
   2.3066666666666660E-005    -1.6774249467137972E-029
   2.3266666666666665E-005    -1.9218238015604915E-029
   2.3466666666666663E-005    -1.9104328287191024E-029
   2.3666666666666661E-005    -1.6368821653618461E-029
   2.3866666666666660E-005    -1.1664733250554331E-029
   2.4066666666666664E-005    -6.3537482108273248E-030
   2.4266666666666662E-005    -2.2645516868026222E-030
   2.4466666666666661E-005    -1.1996490670198203E-030
   2.4666666666666665E-005    -4.2433472796887109E-030
   2.4866666666666663E-005    -1.1007769206184848E-029
   2.5066666666666662E-005    -1.9032011122412053E-029
   2.5266666666666660E-005    -2.3596076895355386E-029
   2.5466666666666665E-005    -1.8199102092877028E-029
   2.5666666666666663E-005     4.1401813815622398E-030
   2.5866666666666661E-005     4.8779923538784529E-029
   2.6066666666666666E-005     1.1681427151126969E-028
   2.6266666666666664E-005     2.0243437608392084E-028
   2.6466666666666662E-005     2.9106350545343399E-028
   2.6666666666666660E-005     3.5914878825441712E-028
   2.6866666666666665E-005     3.7639977610053108E-028
   2.7066666666666663E-005     3.1091240427565620E-028
   2.7266666666666661E-005     1.3700519141749076E-028
   2.7466666666666666E-005    -1.5521565348777413E-028
   2.7666666666666664E-005    -5.5040362249365615E-028
   2.7866666666666662E-005    -1.0011704148724053E-027
   2.8066666666666667E-005    -1.4267564436002691E-027
   2.8266666666666658E-005    -1.7196376176610914E-027
   2.8466666666666663E-005    -1.7613921640413956E-027
   2.8666666666666668E-005    -1.4472457382031243E-027
   2.8866666666666659E-005    -7.1627448339875266E-028
   2.9066666666666664E-005     4.1828569497716674E-028
   2.9266666666666669E-005     1.8461575409047277E-027
   2.9466666666666660E-005     3.3528445068359391E-027
   2.9666666666666665E-005     4.6353039234339000E-027
   2.9866666666666656E-005     5.3442922768152955E-027
   3.0066666666666661E-005     5.1517778603183029E-027
   3.0266666666666666E-005     3.8350249499445940E-027
   3.0466666666666657E-005     1.3620410567194775E-027
   3.0666666666666662E-005    -2.0421836980623159E-027
   3.0866666666666667E-005    -5.8710067683999942E-027
   3.1066666666666658E-005    -9.3720997327051407E-027
   3.1266666666666663E-005    -1.1654037056940379E-026
   3.1466666666666668E-005    -1.1859070788447867E-026
   3.1666666666666659E-005    -9.3799105341875976E-027
   3.1866666666666664E-005    -4.0807027366264518E-027
   3.2066666666666656E-005     3.5306390407679800E-027
   3.2266666666666660E-005     1.2235425232972332E-026
   3.2466666666666665E-005     2.0190115252690309E-026
   3.2666666666666657E-005     2.5189347135461499E-026
   3.2866666666666661E-005     2.5094029010653886E-026
   3.3066666666666666E-005     1.8368946652814006E-026
   3.3266666666666658E-005     4.6320398573641525E-027
   3.3466666666666662E-005    -1.4912706670983694E-026
   3.3666666666666667E-005    -3.7294259029450508E-026
   3.3866666666666659E-005    -5.7957666173370136E-026
   3.4066666666666664E-005    -7.1367346300874920E-026
   3.4266666666666668E-005    -7.2002194440303174E-026
   3.4466666666666660E-005    -5.5615285463760248E-026
   3.4666666666666665E-005    -2.0537970556269710E-026
   3.4866666666666656E-005     3.1255648978012192E-026
   3.5066666666666661E-005     9.3619405292856959E-026
   3.5266666666666666E-005     1.5648171553682558E-025
   3.5466666666666657E-005     2.0698603282541712E-025
   3.5666666666666662E-005     2.3146732029091640E-025
   3.5866666666666667E-005     2.1800893416549004E-025
   3.6066666666666658E-005     1.5914992661517086E-025
   3.6266666666666663E-005     5.4206250464543258E-026
   3.6466666666666668E-005    -8.9328550473302816E-026
   3.6666666666666659E-005    -2.5570980476926332E-025
   3.6866666666666664E-005    -4.2236096042837420E-025
   3.7066666666666669E-005    -5.6264005229168747E-025
   3.7266666666666660E-005    -6.4950172378079939E-025
   3.7466666666666665E-005    -6.5938462250521480E-025
   3.7666666666666656E-005    -5.7560261468627914E-025
   3.7866666666666661E-005    -3.9066958289676802E-025
   3.8066666666666666E-005    -1.0733188474845017E-025
   3.8266666666666657E-005     2.6146821820644053E-025
   3.8466666666666662E-005     6.9306301739755627E-025
   3.8666666666666667E-005     1.1551219237669806E-024
   3.8866666666666658E-005     1.6046267004754914E-024
   3.9066666666666663E-005     1.9856800442857120E-024
   3.9266666666666668E-005     2.2270594511545370E-024
   3.9466666666666659E-005     2.2415871135850872E-024
   3.9666666666666664E-005     1.9303345492515374E-024
   3.9866666666666655E-005     1.1949467777061582E-024
   4.0066666666666660E-005    -3.9500706062841589E-026
   4.0266666666666665E-005    -1.7910088943997968E-024
   4.0466666666666656E-005    -3.9800880456267893E-024
   4.0666666666666661E-005    -6.3902336326283921E-024
   4.0866666666666666E-005    -8.6419522840344590E-024
   4.1066666666666657E-005    -1.0195662746243365E-023
   4.1266666666666662E-005    -1.0398475729532067E-023
   4.1466666666666667E-005    -8.5849712831285349E-024
   4.1666666666666658E-005    -4.2320951838259781E-024
   4.1866666666666663E-005     2.8464160387336733E-024
   4.2066666666666668E-005     1.2297966803465594E-023
   4.2266666666666660E-005     2.3069666037893110E-023
   4.2466666666666664E-005     3.3346463128238457E-023
   4.2666666666666656E-005     4.0647680039533768E-023
   4.2866666666666661E-005     4.2125437396066185E-023
   4.3066666666666665E-005     3.5075971243175866E-023
   4.3266666666666657E-005     1.7626724584816244E-023
   4.3466666666666662E-005    -1.0495781722191079E-023
   4.3666666666666666E-005    -4.7268747389234764E-023
   4.3866666666666658E-005    -8.7939070892191996E-023
   4.4066666666666663E-005    -1.2505474929089990E-022
   4.4266666666666667E-005    -1.4912876463432781E-022
   4.4466666666666659E-005    -1.5001448503693548E-022
   4.4666666666666664E-005    -1.1893443822205872E-022
   4.4866666666666655E-005    -5.0931270799994878E-023
   4.5066666666666660E-005     5.2668225761877573E-023
   4.5266666666666665E-005     1.8232942102373246E-022
   4.5466666666666656E-005     3.1954541411258776E-022
   4.5666666666666661E-005     4.3779528515198292E-022
   4.5866666666666666E-005     5.0558668444176199E-022
   4.6066666666666657E-005     4.9159403378801997E-022
   4.6266666666666662E-005     3.7143807285321911E-022
   4.6466666666666667E-005     1.3514174329200545E-022
   4.6666666666666658E-005    -2.0615673116310517E-022
   4.6866666666666663E-005    -6.1593143714792257E-022
   4.7066666666666668E-005    -1.0321172346421329E-021
   4.7266666666666659E-005    -1.3723638230335601E-021
   4.7466666666666664E-005    -1.5451786349072408E-021
   4.7666666666666655E-005    -1.4662967853013661E-021
   4.7866666666666660E-005    -1.0782745590574454E-021
   4.8066666666666665E-005    -3.7002069806581593E-022
   4.8266666666666656E-005     6.0795336495817315E-022
   4.8466666666666661E-005     1.7370465707218968E-021
   4.8666666666666666E-005     2.8366761624635267E-021
   4.8866666666666657E-005     3.6851223445631996E-021
   4.9066666666666662E-005     4.0546196428847323E-021
   4.9266666666666667E-005     3.7569335770775932E-021
   4.9466666666666658E-005     2.6923262793277043E-021
   4.9666666666666663E-005     8.9213064845817101E-022
   4.9866666666666655E-005    -1.4560923330669168E-021
   5.0066666666666659E-005    -4.0109341667842755E-021
   5.0266666666666664E-005    -6.3137561206211043E-021
   5.0466666666666656E-005    -7.8603249682570597E-021
   5.0666666666666660E-005    -8.2005280367700677E-021
   5.0866666666666665E-005    -7.0508802712599054E-021
   5.1066666666666657E-005    -4.3973515091590657E-021
   5.1266666666666661E-005    -5.6196759570164087E-022
   5.1466666666666666E-005     3.7924571069776244E-021
   5.1666666666666658E-005     7.7379862481301741E-021
   5.1866666666666662E-005     1.0242615633726150E-020
   5.2066666666666667E-005     1.0402932768403016E-020
   5.2266666666666659E-005     7.7133711625581859E-021
   5.2466666666666664E-005     2.3174777525219358E-021
   5.2666666666666655E-005    -4.8262200190640187E-021
   5.2866666666666660E-005    -1.1932322674147508E-020
   5.3066666666666665E-005    -1.6584630392802954E-020
   5.3266666666666656E-005    -1.6162377308314507E-020
   5.3466666666666661E-005    -8.4715096589443120E-021
   5.3666666666666666E-005     7.5010935144810644E-021
   5.3866666666666657E-005     3.0849477994140690E-020
   5.4066666666666662E-005     5.8209572122408860E-020
   5.4266666666666667E-005     8.3619280995027827E-020
   5.4466666666666658E-005     9.8955655453809914E-020
   5.4666666666666663E-005     9.5057185538590173E-020
   5.4866666666666668E-005     6.3522637207367919E-020
   5.5066666666666659E-005    -9.7650286899018810E-022
   5.5266666666666664E-005    -9.8203076192751513E-020
   5.5466666666666655E-005    -2.2016921607716741E-019
   5.5666666666666660E-005    -3.4984962942955577E-019
   5.5866666666666665E-005    -4.6139441804444871E-019
   5.6066666666666656E-005    -5.2233017713302774E-019
   5.6266666666666661E-005    -4.9798764757287582E-019
   5.6466666666666666E-005    -3.5801028316027423E-019
   5.6666666666666657E-005    -8.4322474988577398E-020
   5.6866666666666662E-005     3.2057030502792838E-019
   5.7066666666666667E-005     8.2651752389448985E-019
   5.7266666666666658E-005     1.3717318077701620E-018
   5.7466666666666663E-005     1.8636974770860752E-018
   5.7666666666666654E-005     2.1864335736022147E-018
   5.7866666666666659E-005     2.2148013191194145E-018
   5.8066666666666664E-005     1.8353979739694110E-018
   5.8266666666666655E-005     9.7218661470449226E-019
   5.8466666666666660E-005    -3.8647654071855028E-019
   5.8666666666666665E-005    -2.1640448963477013E-018
   5.8866666666666656E-005    -4.1806634600716078E-018
   5.9066666666666661E-005    -6.1522327336601108E-018
   5.9266666666666666E-005    -7.7082132326121718E-018
   5.9466666666666657E-005    -8.4306843601445619E-018
   5.9666666666666662E-005    -7.9140571280459927E-018
   5.9866666666666667E-005    -5.8410052010064215E-018
   6.0066666666666659E-005    -2.0659421028795247E-018
   6.0266666666666663E-005     3.3063972455102241E-018
   6.0466666666666655E-005     9.8624438377870845E-018
   6.0666666666666660E-005     1.6857303954759038E-017
   6.0866666666666664E-005     2.3242498045874296E-017
   6.1066666666666656E-005     2.7753456378899553E-017
   6.1266666666666661E-005     2.9058785435816408E-017
   6.1466666666666665E-005     2.5963382939414372E-017
   6.1666666666666657E-005     1.7646384628297873E-017
   6.1866666666666662E-005     3.9040067003486536E-018
   6.2066666666666666E-005    -1.4641351613817256E-017
   6.2266666666666658E-005    -3.6408956849007452E-017
   6.2466666666666663E-005    -5.8846449340190041E-017
   6.2666666666666668E-005    -7.8568896832957179E-017
   6.2866666666666659E-005    -9.1667784906212103E-017
   6.3066666666666664E-005    -9.4184941832325269E-017
   6.3266666666666655E-005    -8.2719292100054246E-017
   6.3466666666666660E-005    -5.5105458845469969E-017
   6.3666666666666665E-005    -1.1077388523531495E-017
   6.3866666666666656E-005     4.7188509894002491E-017
   6.4066666666666661E-005     1.1476307789027646E-016
   6.4266666666666666E-005     1.8399084244135401E-016
   6.4466666666666657E-005     2.4493069400601366E-016
   6.4666666666666662E-005     2.8624520246437499E-016
   6.4866666666666667E-005     2.9651470932622493E-016
   6.5066666666666658E-005     2.6588528326946018E-016
   6.5266666666666663E-005     1.8789111152610485E-016
   6.5466666666666654E-005     6.1231945582564367E-017
   6.5666666666666659E-005    -1.0875617830870008E-016
   6.5866666666666664E-005    -3.0921228907093853E-016
   6.6066666666666655E-005    -5.1969918237024411E-016
   6.6266666666666660E-005    -7.1318443035226138E-016
   6.6466666666666665E-005    -8.5815210757158515E-016
   6.6666666666666656E-005    -9.2181367451911987E-016
   6.6866666666666661E-005    -8.7423556917404980E-016
   6.7066666666666666E-005    -6.9304653966864561E-016
   6.7266666666666657E-005    -3.6824127401126187E-016
   6.7466666666666662E-005     9.3510511700408734E-017
   6.7666666666666667E-005     6.6570399849392157E-016
   6.7866666666666658E-005     1.3006338077064367E-015
   6.8066666666666663E-005     1.9303866044848928E-015
   6.8266666666666655E-005     2.4705920309916899E-015
   6.8466666666666659E-005     2.8270906225573694E-015
   6.8666666666666664E-005     2.9053774309491113E-015
   6.8866666666666656E-005     2.6223301484375357E-015
   6.9066666666666660E-005     1.9193673411158248E-015
   6.9266666666666665E-005     7.7583892806506994E-016
   6.9466666666666657E-005    -7.7885161250021667E-016
   6.9666666666666661E-005    -2.6560905523744871E-015
   6.9866666666666666E-005    -4.7036421422553838E-015
   7.0066666666666658E-005    -6.7076687323833813E-015
   7.0266666666666662E-005    -8.4025854714874990E-015
   7.0466666666666654E-005    -9.4896387568734614E-015
   7.0666666666666659E-005    -9.6643825009249708E-015
   7.0866666666666664E-005    -8.6522306449988116E-015
   7.1066666666666655E-005    -6.2501904727360700E-015
   7.1266666666666660E-005    -2.3715548212163489E-015
   7.1466666666666665E-005     2.9108901331280791E-015
   7.1666666666666656E-005     9.3287355311800872E-015
   7.1866666666666661E-005     1.6395327275182427E-014
   7.2066666666666666E-005     2.3403388195496547E-014
   7.2266666666666657E-005     2.9449187500477786E-014
   7.2466666666666662E-005     3.3488260721328128E-014
   7.2666666666666667E-005     3.4425201133735789E-014
   7.2866666666666658E-005     3.1236616754564545E-014
   7.3066666666666663E-005     2.3121744658336808E-014
   7.3266666666666654E-005     9.6699737654097964E-015
   7.3466666666666659E-005    -8.9710292823898599E-015
   7.3666666666666664E-005    -3.1948073608281322E-014
   7.3866666666666655E-005    -5.7601472691019145E-014
   7.4066666666666660E-005    -8.3437570004216144E-014
   7.4266666666666665E-005    -1.0620069954741032E-013
   7.4466666666666656E-005    -1.2206529461256804E-013
   7.4666666666666661E-005    -1.2695938321916761E-013
   7.4866666666666666E-005    -1.1701654456606342E-013
   7.5066666666666657E-005    -8.9135818138411788E-014
   7.5266666666666662E-005    -4.1608101512824458E-014
   7.5466666666666653E-005     2.5252959174725670E-014