  -3.3333333333333335E-005     0.0000000000000000     
  -3.3133333333333337E-005     0.0000000000000000     
  -3.2933333333333332E-005     0.0000000000000000     
  -3.2733333333333334E-005     0.0000000000000000     
  -3.2533333333333336E-005     0.0000000000000000     
  -3.2333333333333338E-005     0.0000000000000000     
  -3.2133333333333333E-005     0.0000000000000000     
  -3.1933333333333335E-005     0.0000000000000000     
  -3.1733333333333337E-005     0.0000000000000000     
  -3.1533333333333332E-005     0.0000000000000000     
  -3.1333333333333334E-005     0.0000000000000000     
  -3.1133333333333336E-005     0.0000000000000000     
  -3.0933333333333338E-005     0.0000000000000000     
  -3.0733333333333333E-005     0.0000000000000000     
  -3.0533333333333335E-005     0.0000000000000000     
  -3.0333333333333337E-005     0.0000000000000000     
  -3.0133333333333335E-005     0.0000000000000000     
  -2.9933333333333334E-005     0.0000000000000000     
  -2.9733333333333336E-005     0.0000000000000000     
  -2.9533333333333334E-005     0.0000000000000000     
  -2.9333333333333336E-005     0.0000000000000000     
  -2.9133333333333334E-005     0.0000000000000000     
  -2.8933333333333336E-005     0.0000000000000000     
  -2.8733333333333335E-005     0.0000000000000000     
  -2.8533333333333333E-005     0.0000000000000000     
  -2.8333333333333335E-005     0.0000000000000000     
  -2.8133333333333337E-005     0.0000000000000000     
  -2.7933333333333336E-005     0.0000000000000000     
  -2.7733333333333334E-005     0.0000000000000000     
  -2.7533333333333336E-005     0.0000000000000000     
  -2.7333333333333335E-005     0.0000000000000000     
  -2.7133333333333333E-005     0.0000000000000000     
  -2.6933333333333335E-005     0.0000000000000000     
  -2.6733333333333337E-005     0.0000000000000000     
  -2.6533333333333336E-005     0.0000000000000000     
  -2.6333333333333334E-005     0.0000000000000000     
  -2.6133333333333336E-005     0.0000000000000000     
  -2.5933333333333335E-005     0.0000000000000000     
  -2.5733333333333333E-005     0.0000000000000000     
  -2.5533333333333335E-005     0.0000000000000000     
  -2.5333333333333337E-005     0.0000000000000000     
  -2.5133333333333336E-005     0.0000000000000000     
  -2.4933333333333334E-005     0.0000000000000000     
  -2.4733333333333336E-005     0.0000000000000000     
  -2.4533333333333334E-005     0.0000000000000000     
  -2.4333333333333333E-005     0.0000000000000000     
  -2.4133333333333335E-005     0.0000000000000000     
  -2.3933333333333337E-005     0.0000000000000000     
  -2.3733333333333335E-005     0.0000000000000000     
  -2.3533333333333334E-005     0.0000000000000000     
  -2.3333333333333336E-005     0.0000000000000000     
  -2.3133333333333338E-005     0.0000000000000000     
  -2.2933333333333336E-005     0.0000000000000000     
  -2.2733333333333335E-005     0.0000000000000000     
  -2.2533333333333337E-005     0.0000000000000000     
  -2.2333333333333335E-005     0.0000000000000000     
  -2.2133333333333334E-005     0.0000000000000000     
  -2.1933333333333336E-005     0.0000000000000000     
  -2.1733333333333338E-005     0.0000000000000000     
  -2.1533333333333336E-005     0.0000000000000000     
  -2.1333333333333335E-005     0.0000000000000000     
  -2.1133333333333337E-005     0.0000000000000000     
  -2.0933333333333335E-005     0.0000000000000000     
  -2.0733333333333334E-005     0.0000000000000000     
  -2.0533333333333336E-005     0.0000000000000000     
  -2.0333333333333337E-005     0.0000000000000000     
  -2.0133333333333336E-005     0.0000000000000000     
  -1.9933333333333334E-005     0.0000000000000000     
  -1.9733333333333336E-005     0.0000000000000000     
  -1.9533333333333335E-005     0.0000000000000000     
  -1.9333333333333333E-005     0.0000000000000000     
  -1.9133333333333335E-005     0.0000000000000000     
  -1.8933333333333337E-005     0.0000000000000000     
  -1.8733333333333336E-005     0.0000000000000000     
  -1.8533333333333334E-005     0.0000000000000000     
  -1.8333333333333336E-005     0.0000000000000000     
  -1.8133333333333335E-005     0.0000000000000000     
  -1.7933333333333337E-005     0.0000000000000000     
  -1.7733333333333335E-005     0.0000000000000000     
  -1.7533333333333337E-005     0.0000000000000000     
  -1.7333333333333336E-005     0.0000000000000000     
  -1.7133333333333334E-005     0.0000000000000000     
  -1.6933333333333336E-005     0.0000000000000000     
  -1.6733333333333335E-005     0.0000000000000000     
  -1.6533333333333337E-005     0.0000000000000000     
  -1.6333333333333335E-005     0.0000000000000000     
  -1.6133333333333337E-005     0.0000000000000000     
  -1.5933333333333336E-005     0.0000000000000000     
  -1.5733333333333334E-005     0.0000000000000000     
  -1.5533333333333336E-005     0.0000000000000000     
  -1.5333333333333334E-005     0.0000000000000000     
  -1.5133333333333336E-005     0.0000000000000000     
  -1.4933333333333335E-005     0.0000000000000000     
  -1.4733333333333337E-005     0.0000000000000000     
  -1.4533333333333335E-005     0.0000000000000000     
  -1.4333333333333337E-005     0.0000000000000000     
  -1.4133333333333336E-005     0.0000000000000000     
  -1.3933333333333334E-005     0.0000000000000000     
  -1.3733333333333336E-005     0.0000000000000000     
  -1.3533333333333335E-005     0.0000000000000000     
  -1.3333333333333337E-005     0.0000000000000000     
  -1.3133333333333335E-005     0.0000000000000000     
  -1.2933333333333337E-005     0.0000000000000000     
  -1.2733333333333336E-005     0.0000000000000000     
  -1.2533333333333338E-005     0.0000000000000000     
  -1.2333333333333336E-005     0.0000000000000000     
  -1.2133333333333335E-005     0.0000000000000000     
  -1.1933333333333337E-005     0.0000000000000000     
  -1.1733333333333335E-005     0.0000000000000000     
  -1.1533333333333337E-005     0.0000000000000000     
  -1.1333333333333336E-005     0.0000000000000000     
  -1.1133333333333337E-005     0.0000000000000000     
  -1.0933333333333336E-005     0.0000000000000000     
  -1.0733333333333334E-005     0.0000000000000000     
  -1.0533333333333336E-005     0.0000000000000000     
  -1.0333333333333335E-005     0.0000000000000000     
  -1.0133333333333337E-005     0.0000000000000000     
  -9.9333333333333354E-006     0.0000000000000000     
  -9.7333333333333373E-006     0.0000000000000000     
  -9.5333333333333358E-006     0.0000000000000000     
  -9.3333333333333343E-006     0.0000000000000000     
  -9.1333333333333362E-006     0.0000000000000000     
  -8.9333333333333348E-006     0.0000000000000000     
  -8.7333333333333367E-006     0.0000000000000000     
  -8.5333333333333352E-006     0.0000000000000000     
  -8.3333333333333371E-006     0.0000000000000000     
  -8.1333333333333356E-006     0.0000000000000000     
  -7.9333333333333376E-006     0.0000000000000000     
  -7.7333333333333361E-006     0.0000000000000000     
  -7.5333333333333346E-006     0.0000000000000000     
  -7.3333333333333365E-006     0.0000000000000000     
  -7.1333333333333351E-006     0.0000000000000000     
  -6.9333333333333370E-006     0.0000000000000000     
  -6.7333333333333355E-006     0.0000000000000000     
  -6.5333333333333374E-006     0.0000000000000000     
  -6.3333333333333359E-006     0.0000000000000000     
  -6.1333333333333379E-006     0.0000000000000000     
  -5.9333333333333364E-006     0.0000000000000000     
  -5.7333333333333349E-006     0.0000000000000000     
  -5.5333333333333368E-006     0.0000000000000000     
  -5.3333333333333354E-006     0.0000000000000000     
  -5.1333333333333373E-006     0.0000000000000000     
  -4.9333333333333358E-006     0.0000000000000000     
  -4.7333333333333377E-006     0.0000000000000000     
  -4.5333333333333362E-006     0.0000000000000000     
  -4.3333333333333348E-006     0.0000000000000000     
  -4.1333333333333367E-006     0.0000000000000000     
  -3.9333333333333352E-006     0.0000000000000000     
  -3.7333333333333371E-006     0.0000000000000000     
  -3.5333333333333356E-006     0.0000000000000000     
  -3.3333333333333376E-006     0.0000000000000000     
  -3.1333333333333361E-006     0.0000000000000000     
  -2.9333333333333346E-006     0.0000000000000000     
  -2.7333333333333365E-006     0.0000000000000000     
  -2.5333333333333384E-006     0.0000000000000000     
  -2.3333333333333336E-006     0.0000000000000000     
  -2.1333333333333355E-006     0.0000000000000000     
  -1.9333333333333374E-006     0.0000000000000000     
  -1.7333333333333393E-006     0.0000000000000000     
  -1.5333333333333345E-006     0.0000000000000000     
  -1.3333333333333364E-006     0.0000000000000000     
  -1.1333333333333383E-006     0.0000000000000000     
  -9.3333333333333343E-007     0.0000000000000000     
  -7.3333333333333535E-007     0.0000000000000000     
  -5.3333333333333726E-007     0.0000000000000000     
  -3.3333333333333918E-007     0.0000000000000000     
  -1.3333333333333432E-007     0.0000000000000000     
   6.6666666666663770E-008     0.0000000000000000     
   2.6666666666666185E-007     0.0000000000000000     
   4.6666666666666672E-007     0.0000000000000000     
   6.6666666666666480E-007     0.0000000000000000     
   8.6666666666666289E-007     0.0000000000000000     
   1.0666666666666610E-006     0.0000000000000000     
   1.2666666666666658E-006     0.0000000000000000     
   1.4666666666666639E-006     0.0000000000000000     
   1.6666666666666620E-006    -1.4111011076021549E-038
   1.8666666666666669E-006    -3.7319246177245953E-038
   2.0666666666666649E-006    -6.5845479015506254E-038
   2.2666666666666630E-006    -9.3048359215221342E-038
   2.4666666666666611E-006    -1.1050415481911215E-037
   2.6666666666666660E-006    -1.1050415481911215E-037
   2.8666666666666641E-006    -7.2037273225553463E-038
   3.0666666666666622E-006     0.0000000000000000     
   3.2666666666666602E-006     7.3364073058320915E-038
   3.4666666666666651E-006     1.6203705157969759E-037
   3.6666666666666632E-006     2.5831865476762487E-037
   3.8666666666666613E-006     3.5390714210393395E-037
   4.0666666666666661E-006     4.4333666485061802E-037
   4.2666666666666642E-006     5.2722592430564578E-037
   4.4666666666666623E-006     6.1188991123485402E-037
   4.6666666666666604E-006     7.0540880405362021E-037
   4.8666666666666652E-006     8.1042421852301234E-037
   5.0666666666666633E-006     9.1287693836084725E-037
   5.2666666666666614E-006     9.2975789891389660E-037
   5.4666666666666663E-006     7.6743632769400249E-037
   5.6666666666666644E-006     2.8980659356736810E-037
   5.8666666666666624E-006    -6.5496259743653709E-037
   6.0666666666666605E-006    -2.1971938410035063E-036
   6.2666666666666654E-006    -4.3924645175737977E-036
   6.4666666666666635E-006    -7.1634779276580340E-036
   6.6666666666666616E-006    -1.0244288339523861E-035
   6.8666666666666664E-006    -1.3146046080079714E-035
   7.0666666666666645E-006    -1.5158856306840996E-035
   7.2666666666666626E-006    -1.5401068123168816E-035
   7.4666666666666607E-006    -1.2921780928602644E-035
   7.6666666666666655E-006    -6.8452291903706528E-036
   7.8666666666666636E-006     3.4593251173096696E-036
   8.0666666666666617E-006     1.8210320255430649E-035
   8.2666666666666598E-006     3.7077158123598503E-035
   8.4666666666666647E-006     5.9091607400044544E-035
   8.6666666666666627E-006     8.2603784564175734E-035
   8.8666666666666608E-006     1.0525579603298012E-034
   9.0666666666666657E-006     1.2392328917251115E-034
   9.2666666666666638E-006     1.3457303840222068E-034
   9.4666666666666619E-006     1.3201533947816149E-034
   9.6666666666666599E-006     1.0960425269380908E-034
   9.8666666666666648E-006     5.9056755829252586E-035
   1.0066666666666663E-005    -2.9296587992182778E-035
   1.0266666666666661E-005    -1.6539200924294777E-034
   1.0466666666666666E-005    -3.5696342562240986E-034
   1.0666666666666664E-005    -6.0535644812844625E-034
   1.0866666666666662E-005    -8.9959847984460399E-034
   1.1066666666666660E-005    -1.2093007418324711E-033
   1.1266666666666665E-005    -1.4778005492915746E-033
   1.1466666666666663E-005    -1.6178944048191402E-033
   1.1666666666666661E-005    -1.5133136111623583E-033
   1.1866666666666666E-005    -1.0294321063994141E-033
   1.2066666666666664E-005    -3.6173083581671158E-035
   1.2266666666666662E-005     1.5556495912201999E-033
   1.2466666666666660E-005     3.7464253923454052E-033
   1.2666666666666665E-005     6.3945041281129895E-033
   1.2866666666666663E-005     9.1688787116168897E-033
   1.3066666666666661E-005     1.1523681157745914E-032
   1.3266666666666666E-005     1.2713116871568954E-032
   1.3466666666666664E-005     1.1864490030827912E-032
   1.3666666666666662E-005     8.1207910506924451E-033
   1.3866666666666660E-005     8.5184016475160992E-034
   1.4066666666666665E-005    -1.0085307331829392E-032
   1.4266666666666663E-005    -2.4078141556784383E-032
   1.4466666666666661E-005    -3.9545945685532872E-032
   1.4666666666666666E-005    -5.3861315723886329E-032
   1.4866666666666664E-005    -6.3486986397444975E-032
   1.5066666666666662E-005    -6.4391253059230282E-032
   1.5266666666666661E-005    -5.2762910292590967E-032
   1.5466666666666665E-005    -2.5980449942191845E-032
   1.5666666666666663E-005     1.6293991517016302E-032
   1.5866666666666662E-005     7.1112447638587924E-032
   1.6066666666666660E-005     1.3161634087964890E-031
   1.6266666666666665E-005     1.8709980354283946E-031
   1.6466666666666663E-005     2.2402700642349746E-031
   1.6666666666666661E-005     2.2813780420787106E-031
   1.6866666666666666E-005     1.8755367366663546E-031
   1.7066666666666664E-005     9.6504218826095599E-032
   1.7266666666666662E-005    -4.1020509309091366E-032
   1.7466666666666660E-005    -2.0865128170598476E-031
   1.7666666666666665E-005    -3.7713909527911917E-031
   1.7866666666666663E-005    -5.0695018246443625E-031
   1.8066666666666661E-005    -5.5452803419532414E-031
   1.8266666666666666E-005    -4.8206919883719138E-031
   1.8466666666666664E-005    -2.6967528417751056E-031
   1.8666666666666662E-005     7.2351553866204960E-032
   1.8866666666666660E-005     4.9426608120154941E-031
   1.9066666666666665E-005     9.0441341050006365E-031
   1.9266666666666663E-005     1.1770290762467211E-030
   1.9466666666666661E-005     1.1725536401147224E-030
   1.9666666666666666E-005     7.7035693142720382E-031
   1.9866666666666664E-005    -8.9541542442248534E-032
   2.0066666666666662E-005    -1.3629738507953861E-030
   2.0266666666666660E-005    -2.8670867692262064E-030
   2.0466666666666665E-005    -4.2677140550671320E-030
   2.0666666666666663E-005    -5.1014013559019490E-030
   2.0866666666666661E-005    -4.8412462123926520E-030
   2.1066666666666659E-005    -3.0083187479351297E-030
   2.1266666666666664E-005     6.8050750350458791E-031
   2.1466666666666662E-005     6.1505957036153905E-030
   2.1666666666666660E-005     1.2828623873461685E-029
   2.1866666666666665E-005     1.9567180410341425E-029
   2.2066666666666663E-005     2.4681345942181439E-029
   2.2266666666666661E-005     2.6134893419459095E-029
   2.2466666666666659E-005     2.1892033640787558E-029
   2.2666666666666664E-005     1.0416247659472536E-029
   2.2866666666666662E-005    -8.7458510028862601E-030
   2.3066666666666660E-005    -3.4403347014216524E-029
   2.3266666666666665E-005    -6.3327652040832258E-029
   2.3466666666666663E-005    -9.0188759475540094E-029
   2.3666666666666661E-005    -1.0796688638449499E-028
   2.3866666666666660E-005    -1.0892778098199839E-028
   2.4066666666666664E-005    -8.6148874657413743E-029
   2.4266666666666662E-005    -3.5446797802492300E-029
   2.4466666666666661E-005     4.2596129617752763E-029
   2.4666666666666665E-005     1.4094729316122193E-028
   2.4866666666666663E-005     2.4530728590880635E-028
   2.5066666666666662E-005     3.3467922238374536E-028
   2.5266666666666660E-005     3.8370786171925427E-028
   2.5466666666666665E-005     3.6689579330746616E-028
   2.5666666666666663E-005     2.6440249612141692E-028
   2.5866666666666661E-005     6.8650031664519299E-029
   2.6066666666666666E-005    -2.0951301122389460E-028
   2.6266666666666664E-005    -5.3668840128419410E-028
   2.6466666666666662E-005    -8.5654424644260131E-028
   2.6666666666666660E-005    -1.0946041135259327E-027
   2.6866666666666665E-005    -1.1689456834547605E-027
   2.7066666666666663E-005    -1.0064252184291686E-027
   2.7266666666666661E-005    -5.6261671464299336E-028
   2.7466666666666666E-005     1.5785530899542698E-028
   2.7666666666666664E-005     1.0851762049656710E-027
   2.7866666666666662E-005     2.0776177275511301E-027
   2.8066666666666667E-005     2.9290902300781820E-027
   2.8266666666666658E-005     3.3942150227853324E-027
   2.8466666666666663E-005     3.2312124011981632E-027
   2.8666666666666668E-005     2.2588831724289457E-027
   2.8866666666666659E-005     4.1941038991644028E-028
   2.9066666666666664E-005    -2.1654851997758867E-027
   2.9266666666666669E-005    -5.1602311520302073E-027
   2.9466666666666660E-005    -8.0182826857376884E-027
   2.9666666666666665E-005    -1.0034212106798118E-026
   2.9866666666666656E-005    -1.0449792351685906E-026
   3.0066666666666661E-005    -8.6081488053848334E-027
   3.0266666666666666E-005    -4.1370539060552669E-027
   3.0466666666666657E-005     2.8704244780422024E-027
   3.0666666666666662E-005     1.1719665045725319E-026
   3.0866666666666667E-005     2.1067992639940899E-026
   3.1066666666666658E-005     2.9007851458343139E-026
   3.1266666666666663E-005     3.3303273042981413E-026
   3.1466666666666668E-005     3.1776469738781077E-026
   3.1666666666666659E-005     2.2806600474961210E-026
   3.1866666666666664E-005     5.8657967427144378E-027
   3.2066666666666656E-005    -1.8014586328254443E-026
   3.2266666666666660E-005    -4.5972336040000108E-026
   3.2466666666666665E-005    -7.3357851905925482E-026
   3.2666666666666657E-005    -9.4180538078477802E-026
   3.2866666666666661E-005    -1.0198371595984281E-025
   3.3066666666666666E-005    -9.1086989223774494E-026
   3.3266666666666658E-005    -5.8035775728938660E-026
   3.3466666666666662E-005    -3.0045254393259302E-027
   3.3666666666666667E-005     6.9164667927199016E-026
   3.3866666666666659E-005     1.4861987845158640E-025
   3.4066666666666664E-005     2.2112956929893121E-025
   3.4266666666666668E-005     2.6982898516232871E-025
   3.4466666666666660E-005     2.7802421458763692E-025
   3.4666666666666665E-005     2.3274909600238411E-025
   3.4866666666666656E-005     1.2852163776096314E-025
   3.5066666666666661E-005    -2.9451542576699204E-026
   3.5266666666666666E-005    -2.2346057931814944E-025
   3.5466666666666657E-005    -4.2363457635985352E-025
   3.5666666666666662E-005    -5.9094847378696321E-025
   3.5866666666666667E-005    -6.8296352705085111E-025
   3.6066666666666658E-005    -6.6179804383712533E-025
   3.6266666666666663E-005    -5.0321161042731516E-025
   3.6466666666666668E-005    -2.0515299125261965E-025
   3.6666666666666659E-005     2.0618955448208006E-025
   3.6866666666666664E-005     6.7476381097914446E-025
   3.7066666666666669E-005     1.1189206037883226E-024
   3.7266666666666660E-005     1.4421402866616883E-024
   3.7466666666666665E-005     1.5495376838431268E-024
   3.7666666666666656E-005     1.3680520481651413E-024
   3.7866666666666661E-005     8.6691967786876245E-025
   3.8066666666666666E-005     7.4139070721127166E-026
   3.8266666666666657E-005    -9.1553618938140188E-025
   3.8466666666666662E-005    -1.9447827339458865E-024
   3.8666666666666667E-005    -2.8120319584578050E-024
   3.8866666666666658E-005    -3.3033035674389213E-024
   3.9066666666666663E-005    -3.2338625085350313E-024
   3.9266666666666668E-005    -2.4930459934551473E-024
   3.9466666666666659E-005    -1.0834111148235434E-024
   3.9666666666666664E-005     8.5539954763936740E-025
   3.9866666666666655E-005     3.0464897025289946E-024
   4.0066666666666660E-005     5.1043536750860501E-024
   4.0266666666666665E-005     6.5922632770382089E-024
   4.0466666666666656E-005     7.1020318993097211E-024
   4.0666666666666661E-005     6.3435196564039194E-024
   4.0866666666666666E-005     4.2264382622746382E-024
   4.1066666666666657E-005     9.1511128917632721E-025
   4.1266666666666662E-005    -3.1610768766082305E-024
   4.1466666666666667E-005    -7.3523524528935473E-024
   4.1666666666666658E-005    -1.0888763037318693E-023
   4.1866666666666663E-005    -1.3023651783091981E-023
   4.2066666666666668E-005    -1.3195494087241705E-023
   4.2266666666666660E-005    -1.1173753238826078E-023
   4.2466666666666664E-005    -7.1510887924227001E-024
   4.2666666666666656E-005    -1.7493377115119495E-024
   4.2866666666666661E-005     4.0789216674287616E-024
   4.3066666666666665E-005     9.2491819101328590E-024
   4.3266666666666657E-005     1.2813308333602040E-023
   4.3466666666666662E-005     1.4240741097546788E-023
   4.3666666666666666E-005     1.3638062410010608E-023
   4.3866666666666658E-005     1.1828924308717474E-023
   4.4066666666666663E-005     1.0232153873997079E-023
   4.4266666666666667E-005     1.0512640468596557E-023
   4.4466666666666659E-005     1.4034081628484229E-023
   4.4666666666666664E-005     2.1206333981272198E-023
   4.4866666666666655E-005     3.0879748720153908E-023
   4.5066666666666660E-005     3.9978479867303921E-023
   4.5266666666666665E-005     4.3567926359247981E-023
   4.5466666666666656E-005     3.5505998255273565E-023
   4.5666666666666661E-005     9.7297362520708688E-024
   4.5866666666666666E-005    -3.7915703263459601E-023
   4.6066666666666657E-005    -1.0756937595852477E-022
   4.6266666666666662E-005    -1.9339667251832736E-022
   4.6466666666666667E-005    -2.8232804207686601E-022
   4.6666666666666658E-005    -3.5407149566228303E-022
   4.6866666666666663E-005    -3.8288132700967855E-022
   4.7066666666666668E-005    -3.4132946091146770E-022
   4.7266666666666659E-005    -2.0595575464800383E-022
   4.7466666666666664E-005     3.5791793094904274E-023
   4.7666666666666655E-005     3.7840269228258747E-022
   4.7866666666666660E-005     7.9242211364799257E-022
   4.8066666666666665E-005     1.2215522981815382E-021
   4.8266666666666656E-005     1.5843797459949910E-021
   4.8466666666666661E-005     1.7819401021017218E-021
   4.8666666666666666E-005     1.7115128219158989E-021
   4.8866666666666657E-005     1.2859003259309148E-021
   4.9066666666666662E-005     4.5609711058860007E-022
   4.9266666666666667E-005    -7.6605229850020530E-022
   4.9466666666666658E-005    -2.2896512836245526E-021
   4.9666666666666663E-005    -3.9359071080798686E-021
   4.9866666666666655E-005    -5.4431998208005437E-021
   5.0066666666666659E-005    -6.4892965289638578E-021
   5.0266666666666664E-005    -6.7316434847769891E-021
   5.0466666666666656E-005    -5.8635667073101702E-021
   5.0666666666666660E-005    -3.6806681708350576E-021
   5.0866666666666665E-005    -1.4827914250674306E-022
   5.1066666666666657E-005     4.5418427561691037E-021
   5.1266666666666661E-005     9.9386154495029748E-021
   5.1466666666666666E-005     1.5334796030152274E-020
   5.1666666666666658E-005     1.9815334524732255E-020
   5.1866666666666662E-005     2.2354526973677163E-020
   5.2066666666666667E-005     2.1958149132725141E-020
   5.2266666666666659E-005     1.7838111135614828E-020
   5.2466666666666664E-005     9.5987064178483353E-021
   5.2666666666666655E-005    -2.5934386142428371E-021
   5.2866666666666660E-005    -1.7887506096646462E-020
   5.3066666666666665E-005    -3.4706113896115416E-020
   5.3266666666666656E-005    -5.0808205570528720E-020
   5.3466666666666661E-005    -6.3472062867728544E-020
   5.3666666666666666E-005    -6.9797752118817362E-020
   5.3866666666666657E-005    -6.7109628385521696E-020
   5.4066666666666662E-005    -5.3420131752241474E-020
   5.4266666666666667E-005    -2.7898598400562994E-020
   5.4466666666666658E-005     8.7234418932228282E-021
   5.4666666666666663E-005     5.3883776179100249E-020
   5.4866666666666668E-005     1.0312591882373868E-019
   5.5066666666666659E-005     1.5029292703659726E-019
   5.5266666666666664E-005     1.8800530608441448E-019
   5.5466666666666655E-005     2.0841594892506922E-019
   5.5666666666666660E-005     2.0419626797588895E-019
   5.5866666666666665E-005     1.6966910297307201E-019
   5.6066666666666656E-005     1.0196886763018746E-019
   5.6266666666666661E-005     2.0846227750172073E-021
   5.6466666666666666E-005    -1.2437040495828663E-019
   5.6666666666666657E-005    -2.6681493894540419E-019
   5.6866666666666662E-005    -4.0991108446006040E-019
   5.7066666666666667E-005    -5.3442154143580991E-019
   5.7266666666666658E-005    -6.1874619423584379E-019
   5.7466666666666663E-005    -6.4110488619315213E-019
   5.7666666666666654E-005    -5.8225491471791384E-019
   5.7866666666666659E-005    -4.2855072068454204E-019
   5.8066666666666664E-005    -1.7507688670051693E-019
   5.8266666666666655E-005     1.7148731058294892E-019
   5.8466666666666660E-005     5.9066651436696558E-019
   5.8666666666666665E-005     1.0470754114619806E-018
   5.8866666666666656E-005     1.4908135559339084E-018
   5.9066666666666661E-005     1.8597398314453152E-018
   5.9266666666666666E-005     2.0838937833283037E-018
   5.9466666666666657E-005     2.0921610399604649E-018
   5.9666666666666662E-005     1.8210434952094720E-018
   5.9866666666666667E-005     1.2250856098615813E-018
   6.0066666666666659E-005     2.8816160127264804E-019
   6.0266666666666663E-005    -9.6555934703429397E-019
   6.0466666666666655E-005    -2.4625013807290312E-018
   6.0666666666666660E-005    -4.0742326121962474E-018
   6.0866666666666664E-005    -5.6176056378420814E-018
   6.1066666666666656E-005    -6.8623069053521687E-018
   6.1266666666666661E-005    -7.5472149340879132E-018
   6.1466666666666665E-005    -7.4062261345813124E-018
   6.1666666666666657E-005    -6.2030658774336382E-018
   6.1866666666666662E-005    -3.7731934631473738E-018
   6.2066666666666666E-005    -6.9240652438611434E-020
   6.2266666666666658E-005     4.7952557600663634E-018
   6.2466666666666663E-005     1.0510543983625444E-017
   6.2666666666666668E-005     1.6551491973575734E-017
   6.2866666666666659E-005     2.2182476017054941E-017
   6.3066666666666664E-005     2.6493342668626071E-017
   6.3266666666666655E-005     2.8471275442666945E-017
   6.3466666666666660E-005     2.7109769241629163E-017
   6.3666666666666665E-005     2.1551105599105466E-017
   6.3866666666666656E-005     1.1252667268150869E-017
   6.4066666666666661E-005    -3.8387487674631201E-018
   6.4266666666666666E-005    -2.3126682833949521E-017
   6.4466666666666657E-005    -4.5245585057846087E-017
   6.4666666666666662E-005    -6.8011484795824480E-017
   6.4866666666666667E-005    -8.8471175207502980E-017
   6.5066666666666658E-005    -1.0307319603755456E-016
   6.5266666666666663E-005    -1.0797409558314344E-016
   6.5466666666666654E-005    -9.9478851430550344E-017
   6.5666666666666659E-005    -7.4595418955272953E-017
   6.5866666666666664E-005    -3.1661856649071782E-017
   6.6066666666666655E-005     2.9017886317609336E-017
   6.6266666666666660E-005     1.0461371074059372E-016
   6.6466666666666665E-005     1.8938362328383633E-016
   6.6666666666666656E-005     2.7456731803925756E-016
   6.6866666666666661E-005     3.4865731640537081E-016
   6.7066666666666666E-005     3.9812443757171597E-016
   6.7266666666666657E-005     4.0863582527956622E-016
   6.7466666666666662E-005     3.6674991368894306E-016
   6.7666666666666667E-005     2.6200319892329571E-016
   6.7866666666666658E-005     8.9226960207025330E-017
   6.8066666666666663E-005    -1.4914675249261928E-016
   6.8266666666666655E-005    -4.4110201581267232E-016
   6.8466666666666659E-005    -7.6373964474869349E-016
   6.8666666666666664E-005    -1.0830406785565820E-015
   6.8866666666666656E-005    -1.3550439219853824E-015
   6.9066666666666660E-005    -1.5287053696885376E-015
   6.9266666666666665E-005    -1.5505671841780527E-015
   6.9466666666666657E-005    -1.3711583002904218E-015
   6.9666666666666661E-005    -9.5280036319116872E-016
   6.9866666666666666E-005    -2.7820400105873469E-016
   7.0066666666666658E-005     6.4104575766860562E-016
   7.0266666666666662E-005     1.7572756223183344E-015
   7.0466666666666654E-005     2.9821215805856663E-015
   7.0666666666666659E-005     4.1859347578606081E-015
   7.0866666666666664E-005     5.2024818677500698E-015
   7.1066666666666655E-005     5.8399105829756628E-015
   7.1266666666666660E-005     5.8984109134777810E-015
   7.1466666666666665E-005     5.1942448958544954E-015
   7.1666666666666656E-005     3.5888718212528925E-015
   7.1866666666666661E-005     1.0208426257232251E-015
   7.2066666666666666E-005    -2.4629257475443280E-015
   7.2266666666666657E-005    -6.6808199055377882E-015
   7.2466666666666662E-005    -1.1300090366466592E-014
   7.2666666666666667E-005    -1.5835416474190706E-014
   7.2866666666666658E-005    -1.9667122477026039E-014
   7.3066666666666663E-005    -2.2082445396451149E-014
   7.3266666666666654E-005    -2.2341252925352911E-014
   7.3466666666666659E-005    -1.9764744718262992E-014
   7.3666666666666664E-005    -1.3842275951500820E-014
   7.3866666666666655E-005    -4.3475549969438330E-015
   7.4066666666666660E-005     8.5482056817135638E-015
   7.4266666666666665E-005     2.4181904647647447E-014
   7.4466666666666656E-005     4.1340649165663018E-014
   7.4666666666666661E-005     5.8258444997436737E-014
   7.4866666666666666E-005     7.2683565166976188E-014
   7.5066666666666657E-005     8.2028256257783705E-014
   7.5266666666666662E-005     8.3604767531740565E-014
   7.5466666666666653E-005     7.4941951515999916E-014