  -3.3333333333333335E-005     0.0000000000000000     
  -3.3133333333333337E-005     0.0000000000000000     
  -3.2933333333333332E-005     0.0000000000000000     
  -3.2733333333333334E-005     0.0000000000000000     
  -3.2533333333333336E-005     0.0000000000000000     
  -3.2333333333333338E-005     0.0000000000000000     
  -3.2133333333333333E-005     0.0000000000000000     
  -3.1933333333333335E-005     0.0000000000000000     
  -3.1733333333333337E-005     0.0000000000000000     
  -3.1533333333333332E-005     0.0000000000000000     
  -3.1333333333333334E-005     0.0000000000000000     
  -3.1133333333333336E-005     0.0000000000000000     
  -3.0933333333333338E-005     0.0000000000000000     
  -3.0733333333333333E-005     0.0000000000000000     
  -3.0533333333333335E-005     0.0000000000000000     
  -3.0333333333333337E-005     0.0000000000000000     
  -3.0133333333333335E-005     0.0000000000000000     
  -2.9933333333333334E-005     0.0000000000000000     
  -2.9733333333333336E-005     0.0000000000000000     
  -2.9533333333333334E-005     0.0000000000000000     
  -2.9333333333333336E-005     0.0000000000000000     
  -2.9133333333333334E-005     0.0000000000000000     
  -2.8933333333333336E-005     0.0000000000000000     
  -2.8733333333333335E-005     0.0000000000000000     
  -2.8533333333333333E-005     0.0000000000000000     
  -2.8333333333333335E-005     0.0000000000000000     
  -2.8133333333333337E-005     0.0000000000000000     
  -2.7933333333333336E-005     0.0000000000000000     
  -2.7733333333333334E-005     0.0000000000000000     
  -2.7533333333333336E-005     0.0000000000000000     
  -2.7333333333333335E-005     0.0000000000000000     
  -2.7133333333333333E-005     0.0000000000000000     
  -2.6933333333333335E-005     0.0000000000000000     
  -2.6733333333333337E-005     0.0000000000000000     
  -2.6533333333333336E-005     0.0000000000000000     
  -2.6333333333333334E-005     0.0000000000000000     
  -2.6133333333333336E-005     0.0000000000000000     
  -2.5933333333333335E-005     0.0000000000000000     
  -2.5733333333333333E-005     0.0000000000000000     
  -2.5533333333333335E-005     0.0000000000000000     
  -2.5333333333333337E-005     0.0000000000000000     
  -2.5133333333333336E-005     0.0000000000000000     
  -2.4933333333333334E-005     0.0000000000000000     
  -2.4733333333333336E-005     0.0000000000000000     
  -2.4533333333333334E-005     0.0000000000000000     
  -2.4333333333333333E-005     0.0000000000000000     
  -2.4133333333333335E-005     0.0000000000000000     
  -2.3933333333333337E-005     0.0000000000000000     
  -2.3733333333333335E-005     0.0000000000000000     
  -2.3533333333333334E-005     0.0000000000000000     
  -2.3333333333333336E-005     0.0000000000000000     
  -2.3133333333333338E-005     0.0000000000000000     
  -2.2933333333333336E-005     0.0000000000000000     
  -2.2733333333333335E-005     0.0000000000000000     
  -2.2533333333333337E-005     0.0000000000000000     
  -2.2333333333333335E-005     0.0000000000000000     
  -2.2133333333333334E-005     0.0000000000000000     
  -2.1933333333333336E-005     0.0000000000000000     
  -2.1733333333333338E-005     0.0000000000000000     
  -2.1533333333333336E-005     0.0000000000000000     
  -2.1333333333333335E-005     0.0000000000000000     
  -2.1133333333333337E-005     0.0000000000000000     
  -2.0933333333333335E-005     0.0000000000000000     
  -2.0733333333333334E-005     0.0000000000000000     
  -2.0533333333333336E-005     0.0000000000000000     
  -2.0333333333333337E-005     0.0000000000000000     
  -2.0133333333333336E-005     0.0000000000000000     
  -1.9933333333333334E-005     0.0000000000000000     
  -1.9733333333333336E-005     0.0000000000000000     
  -1.9533333333333335E-005     0.0000000000000000     
  -1.9333333333333333E-005     0.0000000000000000     
  -1.9133333333333335E-005     0.0000000000000000     
  -1.8933333333333337E-005     0.0000000000000000     
  -1.8733333333333336E-005     0.0000000000000000     
  -1.8533333333333334E-005     0.0000000000000000     
  -1.8333333333333336E-005     0.0000000000000000     
  -1.8133333333333335E-005     0.0000000000000000     
  -1.7933333333333337E-005     0.0000000000000000     
  -1.7733333333333335E-005     0.0000000000000000     
  -1.7533333333333337E-005     0.0000000000000000     
  -1.7333333333333336E-005     0.0000000000000000     
  -1.7133333333333334E-005     0.0000000000000000     
  -1.6933333333333336E-005     0.0000000000000000     
  -1.6733333333333335E-005     0.0000000000000000     
  -1.6533333333333337E-005     0.0000000000000000     
  -1.6333333333333335E-005     0.0000000000000000     
  -1.6133333333333337E-005     0.0000000000000000     
  -1.5933333333333336E-005     0.0000000000000000     
  -1.5733333333333334E-005     0.0000000000000000     
  -1.5533333333333336E-005     0.0000000000000000     
  -1.5333333333333334E-005     0.0000000000000000     
  -1.5133333333333336E-005     0.0000000000000000     
  -1.4933333333333335E-005     0.0000000000000000     
  -1.4733333333333337E-005     0.0000000000000000     
  -1.4533333333333335E-005     0.0000000000000000     
  -1.4333333333333337E-005     0.0000000000000000     
  -1.4133333333333336E-005     0.0000000000000000     
  -1.3933333333333334E-005     0.0000000000000000     
  -1.3733333333333336E-005     0.0000000000000000     
  -1.3533333333333335E-005     0.0000000000000000     
  -1.3333333333333337E-005     0.0000000000000000     
  -1.3133333333333335E-005     0.0000000000000000     
  -1.2933333333333337E-005     0.0000000000000000     
  -1.2733333333333336E-005     0.0000000000000000     
  -1.2533333333333338E-005     0.0000000000000000     
  -1.2333333333333336E-005     0.0000000000000000     
  -1.2133333333333335E-005     0.0000000000000000     
  -1.1933333333333337E-005     0.0000000000000000     
  -1.1733333333333335E-005     0.0000000000000000     
  -1.1533333333333337E-005     0.0000000000000000     
  -1.1333333333333336E-005     0.0000000000000000     
  -1.1133333333333337E-005     0.0000000000000000     
  -1.0933333333333336E-005     0.0000000000000000     
  -1.0733333333333334E-005     0.0000000000000000     
  -1.0533333333333336E-005     0.0000000000000000     
  -1.0333333333333335E-005     0.0000000000000000     
  -1.0133333333333337E-005     0.0000000000000000     
  -9.9333333333333354E-006     0.0000000000000000     
  -9.7333333333333373E-006     0.0000000000000000     
  -9.5333333333333358E-006     0.0000000000000000     
  -9.3333333333333343E-006     0.0000000000000000     
  -9.1333333333333362E-006     0.0000000000000000     
  -8.9333333333333348E-006     0.0000000000000000     
  -8.7333333333333367E-006     0.0000000000000000     
  -8.5333333333333352E-006     0.0000000000000000     
  -8.3333333333333371E-006     0.0000000000000000     
  -8.1333333333333356E-006     0.0000000000000000     
  -7.9333333333333376E-006     0.0000000000000000     
  -7.7333333333333361E-006     0.0000000000000000     
  -7.5333333333333346E-006     0.0000000000000000     
  -7.3333333333333365E-006     0.0000000000000000     
  -7.1333333333333351E-006     0.0000000000000000     
  -6.9333333333333370E-006     0.0000000000000000     
  -6.7333333333333355E-006     0.0000000000000000     
  -6.5333333333333374E-006     0.0000000000000000     
  -6.3333333333333359E-006     0.0000000000000000     
  -6.1333333333333379E-006     0.0000000000000000     
  -5.9333333333333364E-006     0.0000000000000000     
  -5.7333333333333349E-006     0.0000000000000000     
  -5.5333333333333368E-006     0.0000000000000000     
  -5.3333333333333354E-006     0.0000000000000000     
  -5.1333333333333373E-006     0.0000000000000000     
  -4.9333333333333358E-006     0.0000000000000000     
  -4.7333333333333377E-006     0.0000000000000000     
  -4.5333333333333362E-006     0.0000000000000000     
  -4.3333333333333348E-006     0.0000000000000000     
  -4.1333333333333367E-006     0.0000000000000000     
  -3.9333333333333352E-006     0.0000000000000000     
  -3.7333333333333371E-006     0.0000000000000000     
  -3.5333333333333356E-006     0.0000000000000000     
  -3.3333333333333376E-006     0.0000000000000000     
  -3.1333333333333361E-006     0.0000000000000000     
  -2.9333333333333346E-006     0.0000000000000000     
  -2.7333333333333365E-006     0.0000000000000000     
  -2.5333333333333384E-006     0.0000000000000000     
  -2.3333333333333336E-006     0.0000000000000000     
  -2.1333333333333355E-006     0.0000000000000000     
  -1.9333333333333374E-006     0.0000000000000000     
  -1.7333333333333393E-006     0.0000000000000000     
  -1.5333333333333345E-006     0.0000000000000000     
  -1.3333333333333364E-006     0.0000000000000000     
  -1.1333333333333383E-006     0.0000000000000000     
  -9.3333333333333343E-007     0.0000000000000000     
  -7.3333333333333535E-007     0.0000000000000000     
  -5.3333333333333726E-007     0.0000000000000000     
  -3.3333333333333918E-007     0.0000000000000000     
  -1.3333333333333432E-007     0.0000000000000000     
   6.6666666666663770E-008     0.0000000000000000     
   2.6666666666666185E-007     0.0000000000000000     
   4.6666666666666672E-007     0.0000000000000000     
   6.6666666666666480E-007     0.0000000000000000     
   8.6666666666666289E-007     0.0000000000000000     
   1.0666666666666610E-006     0.0000000000000000     
   1.2666666666666658E-006     0.0000000000000000     
   1.4666666666666639E-006     0.0000000000000000     
   1.6666666666666620E-006     0.0000000000000000     
   1.8666666666666669E-006     0.0000000000000000     
   2.0666666666666649E-006    -2.4482545454847584E-035
   2.2666666666666630E-006    -5.5227370611864119E-035
   2.4666666666666611E-006    -8.6450842374856104E-035
   2.6666666666666660E-006    -1.0836993770769760E-034
   2.8666666666666641E-006    -1.0836993770769760E-034
   3.0666666666666622E-006    -4.5082309091009340E-035
   3.2666666666666602E-006     5.8808329332708200E-035
   3.4666666666666651E-006     2.0688764859319571E-034
   3.6666666666666632E-006     3.6430973726094625E-034
   3.8666666666666613E-006     5.2928433121498192E-034
   4.0666666666666661E-006     6.1198664952681667E-034
   4.2666666666666642E-006     5.6132472563404731E-034
   4.4666666666666623E-006     3.2241298342235425E-034
   4.6666666666666604E-006    -1.3558142658834648E-034
   4.8666666666666652E-006    -7.9737547071618239E-034
   5.0666666666666633E-006    -1.5769010597151284E-033
   5.2666666666666614E-006    -2.3156853002115200E-033
   5.4666666666666663E-006    -2.8381870290222574E-033
   5.6666666666666644E-006    -2.8796672859268988E-033
   5.8666666666666624E-006    -2.2050080989777861E-033
   6.0666666666666605E-006    -6.7356928328070970E-034
   6.2666666666666654E-006     1.7002221720598945E-033
   6.4666666666666635E-006     4.6723997613705535E-033
   6.6666666666666616E-006     7.7418395899781717E-033
   6.8666666666666664E-006     1.0180761146536008E-032
   7.0666666666666645E-006     1.1142682867493271E-032
   7.2666666666666626E-006     9.8156900700530379E-033
   7.4666666666666607E-006     5.7433621750200152E-033
   7.6666666666666655E-006    -9.8918216963680126E-034
   7.8666666666666636E-006    -9.5536958891417664E-033
   8.0666666666666617E-006    -1.8343246981852120E-032
   8.2666666666666598E-006    -2.5160592591003210E-032
   8.4666666666666647E-006    -2.7668259995933010E-032
   8.6666666666666627E-006    -2.4065399198021470E-032
   8.8666666666666608E-006    -1.3915009886774833E-032
   9.0666666666666657E-006     1.2113835708853343E-033
   9.2666666666666638E-006     1.7325371729795716E-032
   9.4666666666666619E-006     2.8422295540947352E-032
   9.6666666666666599E-006     2.7712643723884183E-032
   9.8666666666666648E-006     9.7518210538690474E-033
   1.0066666666666663E-005    -2.6686528256428515E-032
   1.0266666666666661E-005    -7.5651425117720302E-032
   1.0466666666666666E-005    -1.2190766267250694E-031
   1.0666666666666664E-005    -1.4092084886414764E-031
   1.0866666666666662E-005    -1.0188905265272092E-031
   1.1066666666666660E-005     2.5170070014206714E-032
   1.1266666666666665E-005     2.5847178857914544E-031
   1.1466666666666663E-005     5.9087911553970062E-031
   1.1666666666666661E-005     9.7640435208679511E-031
   1.1866666666666666E-005     1.3209675131489776E-030
   1.2066666666666664E-005     1.4824930382514007E-030
   1.2266666666666662E-005     1.2854425692343590E-030
   1.2466666666666660E-005     5.5333829285296989E-031
   1.2666666666666665E-005    -8.4029696451016861E-031
   1.2866666666666663E-005    -2.9070757704875077E-030
   1.3066666666666661E-005    -5.4754944396895564E-030
   1.3266666666666666E-005    -8.1360067906288109E-030
   1.3466666666666664E-005    -1.0220880122207680E-029
   1.3666666666666662E-005    -1.0841729218537979E-029
   1.3866666666666660E-005    -9.0038533930612352E-030
   1.4066666666666665E-005    -3.8061769809568834E-030
   1.4266666666666663E-005     5.2817458872842005E-030
   1.4466666666666661E-005     1.8097322713847239E-029
   1.4666666666666666E-005     3.3474615446784389E-029
   1.4866666666666664E-005     4.9027264101157998E-029
   1.5066666666666662E-005     6.1120403916880809E-029
   1.5266666666666661E-005     6.5125977089341687E-029
   1.5466666666666665E-005     5.6031513206295340E-029
   1.5666666666666663E-005     2.9421890092606943E-029
   1.5866666666666662E-005    -1.7223972164745621E-029
   1.6066666666666660E-005    -8.3075933060522384E-029
   1.6266666666666665E-005    -1.6259283184325222E-028
   1.6466666666666663E-005    -2.4460653629854105E-028
   1.6666666666666661E-005    -3.1224548483491244E-028
   1.6866666666666666E-005    -3.4407653273201552E-028
   1.7066666666666664E-005    -3.1673687383584499E-028
   1.7266666666666662E-005    -2.0911976040337503E-028
   1.7466666666666660E-005    -7.8707129500550073E-030
   1.7666666666666665E-005     2.8642788837379114E-028
   1.7866666666666663E-005     6.5340346332920354E-028
   1.8066666666666661E-005     1.0487351067089368E-027
   1.8266666666666666E-005     1.4032486389955757E-027
   1.8466666666666664E-005     1.6267692757427389E-027
   1.8666666666666662E-005     1.6178579978900592E-027
   1.8866666666666660E-005     1.2797907517705207E-027
   1.9066666666666665E-005     5.4201706425432471E-028
   1.9266666666666663E-005    -6.1507572409894760E-028
   1.9466666666666661E-005    -2.1357688711059694E-027
   1.9666666666666666E-005    -3.8699990673626884E-027
   1.9866666666666664E-005    -5.5655789311234667E-027
   2.0066666666666662E-005    -6.8774835054551752E-027
   2.0266666666666660E-005    -7.3988681785117766E-027
   2.0466666666666665E-005    -6.7159511387875512E-027
   2.0666666666666663E-005    -4.4850316987791304E-027
   2.0866666666666661E-005    -5.2497142868853104E-028
   2.1066666666666659E-005     5.0869629991558837E-027
   2.1266666666666664E-005     1.1932998764921137E-026
   2.1466666666666662E-005     1.9207129853538797E-026
   2.1666666666666660E-005     2.5723142501079732E-026
   2.1866666666666665E-005     2.9996725580892610E-026
   2.2066666666666663E-005     3.0412458359431994E-026
   2.2266666666666661E-005     2.5474175226052860E-026
   2.2466666666666659E-005     1.4121144841608673E-026
   2.2666666666666664E-005    -3.9256553612675685E-027
   2.2866666666666662E-005    -2.7840488311523682E-026
   2.3066666666666660E-005    -5.5459713465084514E-026
   2.3266666666666665E-005    -8.3210761589990852E-026
   2.3466666666666663E-005    -1.0626925213126254E-025
   2.3666666666666661E-005    -1.1899042308885657E-025
   2.3866666666666660E-005    -1.1562611621736362E-025
   2.4066666666666664E-005    -9.1291563043211261E-026
   2.4266666666666662E-005    -4.3090531627102511E-026
   2.4466666666666661E-005     2.8748242264815562E-026
   2.4666666666666665E-005     1.1991626229469823E-025
   2.4866666666666663E-005     2.2147117072279520E-025
   2.5066666666666662E-005     3.1989712400009125E-025
   2.5266666666666660E-005     3.9794990623534287E-025
   2.5466666666666665E-005     4.3637329947258873E-025
   2.5666666666666663E-005     4.1644982845032685E-025
   2.5866666666666661E-005     3.2320185954728837E-025
   2.6066666666666666E-005     1.4890147714284702E-025
   2.6266666666666664E-005    -1.0359352222241437E-025
   2.6466666666666662E-005    -4.1825646783470270E-025
   2.6666666666666660E-005    -7.6466959809389110E-025
   2.6866666666666665E-005    -1.0987091985356551E-024
   2.7066666666666663E-005    -1.3655201004822213E-024
   2.7266666666666661E-005    -1.5049063004084376E-024
   2.7466666666666666E-005    -1.4589238940659443E-024
   2.7666666666666664E-005    -1.1810892526145933E-024
   2.7866666666666662E-005    -6.4624042488719599E-025
   2.8066666666666667E-005     1.4021322197772732E-025
   2.8266666666666658E-005     1.1351123682984365E-024
   2.8466666666666663E-005     2.2539176011793705E-024
   2.8666666666666668E-005     3.3719311135343021E-024
   2.8866666666666659E-005     4.3312991758229517E-024
   2.9066666666666664E-005     4.9541431202488437E-024
   2.9266666666666669E-005     5.0614715907086885E-024
   2.9466666666666660E-005     4.4967248853696083E-024
   2.9666666666666665E-005     3.1520195701249354E-024
   2.9866666666666656E-005     9.9446330067057455E-025
   3.0066666666666661E-005    -1.9106173653559908E-024
   3.0266666666666666E-005    -5.3829821078232797E-024
   3.0466666666666657E-005    -9.1207427329883947E-024
   3.0666666666666662E-005    -1.2706678793904221E-023
   3.0866666666666667E-005    -1.5629970905573492E-023
   3.1066666666666658E-005    -1.7324676055094361E-023
   3.1266666666666663E-005    -1.7224790487275276E-023
   3.1466666666666668E-005    -1.4834029184867217E-023
   3.1666666666666659E-005    -9.8063070358361463E-024
   3.1866666666666664E-005    -2.0307007305771278E-024
   3.2066666666666656E-005     8.2877363826503099E-024
   3.2266666666666660E-005     2.0562050769594662E-023
   3.2466666666666665E-005     3.3784807889720806E-023
   3.2666666666666657E-005     4.6530042260367704E-023
   3.2866666666666661E-005     5.7008289182357530E-023
   3.3066666666666666E-005     6.3184729282326997E-023
   3.3266666666666658E-005     6.2965684697052468E-023
   3.3466666666666662E-005     5.4451332242159318E-023
   3.3666666666666667E-005     3.6243030999021556E-023
   3.3866666666666659E-005     7.7817933413386670E-024
   3.4066666666666664E-005    -3.0317322449167535E-023
   3.4266666666666668E-005    -7.5981996918282273E-023
   3.4466666666666660E-005    -1.2550578840206906E-022
   3.4666666666666665E-005    -1.7353642396445352E-022
   3.4866666666666656E-005    -2.1328330058087180E-022
   3.5066666666666661E-005    -2.3698535223026990E-022
   3.5266666666666666E-005    -2.3665605013399444E-022
   3.5466666666666657E-005    -2.0508804551758417E-022
   3.5666666666666662E-005    -1.3705858693927112E-022
   3.5866666666666667E-005    -3.0630055310989732E-023
   3.6066666666666658E-005     1.1160565535529136E-022
   3.6266666666666663E-005     2.8152686231974906E-022
   3.6466666666666668E-005     4.6493523049165765E-022
   3.6666666666666659E-005     6.4166996162314130E-022
   3.6866666666666664E-005     7.8655763332615819E-022
   3.7066666666666669E-005     8.7130997121852145E-022
   3.7266666666666660E-005     8.6737914674756481E-022
   3.7466666666666665E-005     7.4965802708483394E-022
   3.7666666666666656E-005     5.0076360148901521E-022
   3.7866666666666661E-005     1.1549581246886205E-022
   3.8066666666666666E-005    -3.9507272422687513E-022
   3.8266666666666657E-005    -1.0005140278966880E-021
   3.8466666666666662E-005    -1.6496450233396352E-021
   3.8666666666666667E-005    -2.2714428088320157E-021
   3.8866666666666658E-005    -2.7787731156880313E-021
   3.9066666666666663E-005    -3.0751901378014977E-021
   3.9266666666666668E-005    -3.0647431455485727E-021
   3.9466666666666659E-005    -2.6643208841552425E-021
   3.9666666666666664E-005    -1.8176159010891224E-021
   3.9866666666666655E-005    -5.0937129827710135E-022
   4.0066666666666660E-005     1.2218249285103826E-021
   4.0266666666666665E-005     3.2741674647988481E-021
   4.0466666666666656E-005     5.4787277935651931E-021
   4.0666666666666661E-005     7.6028884286133713E-021
   4.0866666666666666E-005     9.3625471607580129E-021
   4.1066666666666657E-005     1.0443794198193429E-020
   4.1266666666666662E-005     1.0533777554789847E-020
   4.1466666666666667E-005     9.3592828669539828E-021
   4.1666666666666658E-005     6.7302371161769355E-021
   4.1866666666666663E-005     2.5840922407248765E-021
   4.2066666666666668E-005    -2.9740770014396934E-021
   4.2266666666666660E-005    -9.6416333757894295E-021
   4.2466666666666664E-005    -1.6904705669008360E-020
   4.2666666666666656E-005    -2.4046394054096536E-020
   4.2866666666666661E-005    -3.0181219456774413E-020
   4.3066666666666665E-005    -3.4318137108259636E-020
   4.3266666666666657E-005    -3.5451581342610422E-020
   4.3466666666666662E-005    -3.2676590720299617E-020
   4.3666666666666666E-005    -2.5320371750876106E-020
   4.3866666666666658E-005    -1.3078828122682249E-020
   4.4066666666666663E-005     3.8565773369411222E-021
   4.4266666666666667E-005     2.4698653432075874E-020
   4.4466666666666659E-005     4.8008890668330027E-020
   4.4666666666666664E-005     7.1703421153774685E-020
   4.4866666666666655E-005     9.3134481752893087E-020
   4.5066666666666660E-005     1.0925585061298800E-019
   4.5266666666666665E-005     1.1687349904565661E-019
   4.5466666666666656E-005     1.1297330368337787E-019
   4.5666666666666661E-005     9.5107042557542099E-020
   4.5866666666666666E-005     6.1807620378906998E-020
   4.6066666666666657E-005     1.2993966985093838E-020
   4.6266666666666662E-005    -4.9681404630472500E-020
   4.6466666666666667E-005    -1.2259409921631436E-019
   4.6666666666666658E-005    -2.0007066589668951E-019
   4.6866666666666663E-005    -2.7451935086951137E-019
   4.7066666666666668E-005    -3.3680346605534013E-019
   4.7266666666666659E-005    -3.7687530025228243E-019
   4.7466666666666664E-005    -3.8466354176159304E-019
   4.7666666666666655E-005    -3.5118014944484731E-019
   4.7866666666666660E-005    -2.6977973520655324E-019
   4.8066666666666665E-005    -1.3747271321657930E-019
   4.8266666666666656E-005     4.3835105318449374E-020
   4.8466666666666661E-005     2.6632909958250000E-019
   4.8666666666666666E-005     5.1566356668494490E-019
   4.8866666666666657E-005     7.7089583155489289E-019
   4.9066666666666662E-005     1.0051233957327053E-018
   4.9266666666666667E-005     1.1869355230227528E-018
   4.9466666666666658E-005     1.2827274840521859E-018
   4.9666666666666663E-005     1.2598499430556537E-018
   4.9866666666666655E-005     1.0904642399152606E-018
   5.0066666666666659E-005     7.5586528774055668E-019
   5.0266666666666664E-005     2.5091856967427224E-019
   5.0466666666666656E-005    -4.1185074544831482E-019
   5.0666666666666660E-005    -1.1990621975979333E-018
   5.0866666666666665E-005    -2.0547745442245995E-018
   5.1066666666666657E-005    -2.9008574745453826E-018
   5.1266666666666661E-005    -3.6399582411125388E-018
   5.1466666666666666E-005    -4.1614199303011742E-018
   5.1666666666666658E-005    -4.3502776718562187E-018
   5.1866666666666662E-005    -4.0991278535019496E-018
   5.2066666666666667E-005    -3.3222890394385929E-018
   5.2266666666666659E-005    -1.9712464663544541E-018
   5.2466666666666664E-005    -4.9933193885289667E-020
   5.2666666666666655E-005     2.3719480579164730E-018
   5.2866666666666660E-005     5.1496435091315383E-018
   5.3066666666666665E-005     8.0602596469535152E-018
   5.3266666666666656E-005     1.0807875709168855E-017
   5.3466666666666661E-005     1.3038457566424250E-017
   5.3666666666666666E-005     1.4365402507108341E-017
   5.3866666666666657E-005     1.4405558817125340E-017
   5.4066666666666662E-005     1.2824258319623031E-017
   5.4266666666666667E-005     9.3864286922230313E-018
   5.4466666666666658E-005     4.0094097763129168E-018
   5.4666666666666663E-005    -3.1882909500838309E-018
   5.4866666666666668E-005    -1.1849078551872016E-017
   5.5066666666666659E-005    -2.1356417061412536E-017
   5.5266666666666664E-005    -3.0840019623275846E-017
   5.5466666666666655E-005    -3.9211904676757689E-017
   5.5666666666666660E-005    -4.5236896352691830E-017
   5.5866666666666665E-005    -4.7638138805206716E-017
   5.6066666666666656E-005    -4.5234034307772397E-017
   5.6266666666666661E-005    -3.7098580634415361E-017
   5.6466666666666666E-005    -2.2732077977092325E-017
   5.6666666666666657E-005    -2.2250327161160829E-018
   5.6866666666666662E-005     2.3605780881656560E-017
   5.7066666666666667E-005     5.3131729803302091E-017
   5.7266666666666658E-005     8.3899758243506222E-017
   5.7466666666666663E-005     1.1271223907140639E-016
   5.7666666666666654E-005     1.3581258778337467E-016
   5.7866666666666659E-005     1.4918080586407686E-016
   5.8066666666666664E-005     1.4893157965423709E-016
   5.8266666666666655E-005     1.3179307234151820E-016
   5.8466666666666660E-005     9.5630655019720949E-017
   5.8666666666666665E-005     3.9965459597348597E-017
   5.8866666666666656E-005    -3.3573712581420694E-017
   5.9066666666666661E-005    -1.2093332909921982E-016
   5.9266666666666666E-005    -2.1552176301690355E-016
   5.9466666666666657E-005    -3.0836115330784596E-016
   5.9666666666666662E-005    -3.8854920655903894E-016
   5.9866666666666667E-005    -4.4405074926030135E-016
   6.0066666666666659E-005    -4.6280456163832399E-016
   6.0266666666666663E-005    -4.3409130939670569E-016
   6.0466666666666655E-005    -3.5006558808951989E-016
   6.0666666666666660E-005    -2.0731288879237631E-016
   6.0866666666666664E-005    -8.2588582674019842E-018
   6.1066666666666656E-005     2.3776548348651192E-016
   6.1266666666666661E-005     5.1400309755819575E-016
   6.1466666666666665E-005     7.9647794461610503E-016
   6.1666666666666657E-005     1.0550690036602848E-015
   6.1866666666666662E-005     1.2555244328256985E-015
   6.2066666666666666E-005     1.3623923563192870E-015
   6.2266666666666658E-005     1.3427404507891584E-015
   6.2466666666666663E-005     1.1704106447582054E-015
   6.2666666666666668E-005     8.3044534222954177E-016
   6.2866666666666659E-005     3.2321861412849882E-016
   6.3066666666666664E-005    -3.3225809680203751E-016
   6.3266666666666655E-005    -1.0964074937389653E-015
   6.3466666666666660E-005    -1.9090456093788207E-015
   6.3666666666666665E-005    -2.6916305725336199E-015
   6.3866666666666656E-005    -3.3520354799699593E-015
   6.4066666666666661E-005    -3.7918315033268635E-015
   6.4266666666666666E-005    -3.9157930810916359E-015
   6.4466666666666657E-005    -3.6430188259225973E-015
   6.4666666666666662E-005    -2.9187741040428853E-015
   6.4866666666666667E-005    -1.7258778050295120E-015
   6.5066666666666658E-005    -9.4297557509640689E-017
   6.5266666666666663E-005     1.8924649394363178E-015
   6.5466666666666654E-005     4.0955300843672094E-015
   6.5666666666666659E-005     6.3244324870464358E-015
   6.5866666666666664E-005     8.3472327154173777E-015
   6.6066666666666655E-005     9.9070786161370092E-015
   6.6266666666666660E-005     1.0744656134601110E-014
   6.6466666666666665E-005     1.0625256676290249E-014
   6.6666666666666656E-005     9.3684130955283204E-015
   6.6866666666666661E-005     6.8774569101769795E-015
   6.7066666666666666E-005     3.1658231215708635E-015
   6.7266666666666657E-005    -1.6232464227007343E-015
   6.7466666666666662E-005    -7.2068875051219637E-015
   6.7666666666666667E-005    -1.3165495779611687E-014
   6.7866666666666658E-005    -1.8960287035069481E-014
   6.8066666666666663E-005    -2.3966339844768911E-014
   6.8266666666666655E-005    -2.7520468068591326E-014
   6.8466666666666659E-005    -2.8981628701725201E-014
   6.8666666666666664E-005    -2.7799905931956415E-014
   6.8866666666666656E-005    -2.3588625830731590E-014
   6.9066666666666660E-005    -1.6192835578811814E-014
   6.9266666666666665E-005    -5.7467657578978964E-015
   6.9466666666666657E-005     7.2873624113747003E-015
   6.9666666666666661E-005     2.2106111496997434E-014
   6.9866666666666666E-005     3.7582801047696471E-014
   7.0066666666666658E-005     5.2320144337857435E-014
   7.0266666666666662E-005     6.4738240267668556E-014
   7.0466666666666654E-005     7.3195322144916503E-014
   7.0666666666666659E-005     7.6135136335610948E-014
   7.0866666666666664E-005     7.2251388628496310E-014
   7.1066666666666655E-005     6.0656585006493846E-014
   7.1266666666666660E-005     4.1040054113341412E-014
   7.1466666666666665E-005     1.3798721517353004E-014
   7.1666666666666656E-005    -1.9875977084896426E-014
   7.1866666666666661E-005    -5.7970419914052385E-014
   7.2066666666666666E-005    -9.7692592405419776E-014
   7.2266666666666657E-005    -1.3559541944124787E-013
   7.2466666666666662E-005    -1.6778149236704870E-013
   7.2666666666666667E-005    -1.9018445672480677E-013
   7.2866666666666658E-005    -1.9891468301062171E-013
   7.3066666666666663E-005    -1.9064883406780947E-013
   7.3266666666666654E-005    -1.6303592590555249E-013
   7.3466666666666659E-005    -1.1508639364849610E-013
   7.3666666666666664E-005    -4.7506225705649593E-014
   7.3866666666666655E-005     3.7063292024222885E-014
   7.4066666666666660E-005     1.3393843326103827E-013
   7.4266666666666665E-005     2.3645161891829025E-013
   7.4466666666666656E-005     3.3620025166603007E-013
   7.4666666666666661E-005     4.2349815061043516E-013
   7.4866666666666666E-005     4.8802536447775657E-013
   7.5066666666666657E-005     5.1965484866578482E-013
   7.5266666666666662E-005     5.0941352915459537E-013
   7.5466666666666653E-005     4.5051524902132989E-013