  -3.3333333333333335E-005     0.0000000000000000     
  -3.3133333333333337E-005     0.0000000000000000     
  -3.2933333333333332E-005     0.0000000000000000     
  -3.2733333333333334E-005     0.0000000000000000     
  -3.2533333333333336E-005     0.0000000000000000     
  -3.2333333333333338E-005     0.0000000000000000     
  -3.2133333333333333E-005     0.0000000000000000     
  -3.1933333333333335E-005     0.0000000000000000     
  -3.1733333333333337E-005     0.0000000000000000     
  -3.1533333333333332E-005     0.0000000000000000     
  -3.1333333333333334E-005     0.0000000000000000     
  -3.1133333333333336E-005     0.0000000000000000     
  -3.0933333333333338E-005     0.0000000000000000     
  -3.0733333333333333E-005     0.0000000000000000     
  -3.0533333333333335E-005     0.0000000000000000     
  -3.0333333333333337E-005     0.0000000000000000     
  -3.0133333333333335E-005     0.0000000000000000     
  -2.9933333333333334E-005     0.0000000000000000     
  -2.9733333333333336E-005     0.0000000000000000     
  -2.9533333333333334E-005     0.0000000000000000     
  -2.9333333333333336E-005     0.0000000000000000     
  -2.9133333333333334E-005     0.0000000000000000     
  -2.8933333333333336E-005     0.0000000000000000     
  -2.8733333333333335E-005     0.0000000000000000     
  -2.8533333333333333E-005     0.0000000000000000     
  -2.8333333333333335E-005     0.0000000000000000     
  -2.8133333333333337E-005     0.0000000000000000     
  -2.7933333333333336E-005     0.0000000000000000     
  -2.7733333333333334E-005     0.0000000000000000     
  -2.7533333333333336E-005     0.0000000000000000     
  -2.7333333333333335E-005     0.0000000000000000     
  -2.7133333333333333E-005     0.0000000000000000     
  -2.6933333333333335E-005     0.0000000000000000     
  -2.6733333333333337E-005     0.0000000000000000     
  -2.6533333333333336E-005     0.0000000000000000     
  -2.6333333333333334E-005     0.0000000000000000     
  -2.6133333333333336E-005     0.0000000000000000     
  -2.5933333333333335E-005     0.0000000000000000     
  -2.5733333333333333E-005     0.0000000000000000     
  -2.5533333333333335E-005     0.0000000000000000     
  -2.5333333333333337E-005     0.0000000000000000     
  -2.5133333333333336E-005     0.0000000000000000     
  -2.4933333333333334E-005     0.0000000000000000     
  -2.4733333333333336E-005     0.0000000000000000     
  -2.4533333333333334E-005     0.0000000000000000     
  -2.4333333333333333E-005     0.0000000000000000     
  -2.4133333333333335E-005     0.0000000000000000     
  -2.3933333333333337E-005     0.0000000000000000     
  -2.3733333333333335E-005     0.0000000000000000     
  -2.3533333333333334E-005     0.0000000000000000     
  -2.3333333333333336E-005     0.0000000000000000     
  -2.3133333333333338E-005     0.0000000000000000     
  -2.2933333333333336E-005     0.0000000000000000     
  -2.2733333333333335E-005     0.0000000000000000     
  -2.2533333333333337E-005     0.0000000000000000     
  -2.2333333333333335E-005     0.0000000000000000     
  -2.2133333333333334E-005     0.0000000000000000     
  -2.1933333333333336E-005     0.0000000000000000     
  -2.1733333333333338E-005     0.0000000000000000     
  -2.1533333333333336E-005     0.0000000000000000     
  -2.1333333333333335E-005     0.0000000000000000     
  -2.1133333333333337E-005     0.0000000000000000     
  -2.0933333333333335E-005     0.0000000000000000     
  -2.0733333333333334E-005     0.0000000000000000     
  -2.0533333333333336E-005     0.0000000000000000     
  -2.0333333333333337E-005     0.0000000000000000     
  -2.0133333333333336E-005     0.0000000000000000     
  -1.9933333333333334E-005     0.0000000000000000     
  -1.9733333333333336E-005     0.0000000000000000     
  -1.9533333333333335E-005     0.0000000000000000     
  -1.9333333333333333E-005     0.0000000000000000     
  -1.9133333333333335E-005     0.0000000000000000     
  -1.8933333333333337E-005     0.0000000000000000     
  -1.8733333333333336E-005     0.0000000000000000     
  -1.8533333333333334E-005     0.0000000000000000     
  -1.8333333333333336E-005     0.0000000000000000     
  -1.8133333333333335E-005     0.0000000000000000     
  -1.7933333333333337E-005     0.0000000000000000     
  -1.7733333333333335E-005     0.0000000000000000     
  -1.7533333333333337E-005     0.0000000000000000     
  -1.7333333333333336E-005     0.0000000000000000     
  -1.7133333333333334E-005     0.0000000000000000     
  -1.6933333333333336E-005     0.0000000000000000     
  -1.6733333333333335E-005     0.0000000000000000     
  -1.6533333333333337E-005     0.0000000000000000     
  -1.6333333333333335E-005     0.0000000000000000     
  -1.6133333333333337E-005     0.0000000000000000     
  -1.5933333333333336E-005     0.0000000000000000     
  -1.5733333333333334E-005     0.0000000000000000     
  -1.5533333333333336E-005     0.0000000000000000     
  -1.5333333333333334E-005     0.0000000000000000     
  -1.5133333333333336E-005     0.0000000000000000     
  -1.4933333333333335E-005     0.0000000000000000     
  -1.4733333333333337E-005     0.0000000000000000     
  -1.4533333333333335E-005     0.0000000000000000     
  -1.4333333333333337E-005     0.0000000000000000     
  -1.4133333333333336E-005     0.0000000000000000     
  -1.3933333333333334E-005     0.0000000000000000     
  -1.3733333333333336E-005     0.0000000000000000     
  -1.3533333333333335E-005     0.0000000000000000     
  -1.3333333333333337E-005     0.0000000000000000     
  -1.3133333333333335E-005     0.0000000000000000     
  -1.2933333333333337E-005     0.0000000000000000     
  -1.2733333333333336E-005     0.0000000000000000     
  -1.2533333333333338E-005     0.0000000000000000     
  -1.2333333333333336E-005     0.0000000000000000     
  -1.2133333333333335E-005     0.0000000000000000     
  -1.1933333333333337E-005     0.0000000000000000     
  -1.1733333333333335E-005     0.0000000000000000     
  -1.1533333333333337E-005     0.0000000000000000     
  -1.1333333333333336E-005     0.0000000000000000     
  -1.1133333333333337E-005     0.0000000000000000     
  -1.0933333333333336E-005     0.0000000000000000     
  -1.0733333333333334E-005     0.0000000000000000     
  -1.0533333333333336E-005     0.0000000000000000     
  -1.0333333333333335E-005     0.0000000000000000     
  -1.0133333333333337E-005     0.0000000000000000     
  -9.9333333333333354E-006     0.0000000000000000     
  -9.7333333333333373E-006     0.0000000000000000     
  -9.5333333333333358E-006     0.0000000000000000     
  -9.3333333333333343E-006     0.0000000000000000     
  -9.1333333333333362E-006     0.0000000000000000     
  -8.9333333333333348E-006     0.0000000000000000     
  -8.7333333333333367E-006     0.0000000000000000     
  -8.5333333333333352E-006     0.0000000000000000     
  -8.3333333333333371E-006     0.0000000000000000     
  -8.1333333333333356E-006     0.0000000000000000     
  -7.9333333333333376E-006     0.0000000000000000     
  -7.7333333333333361E-006     0.0000000000000000     
  -7.5333333333333346E-006     0.0000000000000000     
  -7.3333333333333365E-006     0.0000000000000000     
  -7.1333333333333351E-006     0.0000000000000000     
  -6.9333333333333370E-006     0.0000000000000000     
  -6.7333333333333355E-006     0.0000000000000000     
  -6.5333333333333374E-006     0.0000000000000000     
  -6.3333333333333359E-006     0.0000000000000000     
  -6.1333333333333379E-006     0.0000000000000000     
  -5.9333333333333364E-006     0.0000000000000000     
  -5.7333333333333349E-006     0.0000000000000000     
  -5.5333333333333368E-006     0.0000000000000000     
  -5.3333333333333354E-006     0.0000000000000000     
  -5.1333333333333373E-006     0.0000000000000000     
  -4.9333333333333358E-006     0.0000000000000000     
  -4.7333333333333377E-006     0.0000000000000000     
  -4.5333333333333362E-006     0.0000000000000000     
  -4.3333333333333348E-006     0.0000000000000000     
  -4.1333333333333367E-006     0.0000000000000000     
  -3.9333333333333352E-006     0.0000000000000000     
  -3.7333333333333371E-006     0.0000000000000000     
  -3.5333333333333356E-006     0.0000000000000000     
  -3.3333333333333376E-006     0.0000000000000000     
  -3.1333333333333361E-006     0.0000000000000000     
  -2.9333333333333346E-006     0.0000000000000000     
  -2.7333333333333365E-006     0.0000000000000000     
  -2.5333333333333384E-006     0.0000000000000000     
  -2.3333333333333336E-006     0.0000000000000000     
  -2.1333333333333355E-006     0.0000000000000000     
  -1.9333333333333374E-006     0.0000000000000000     
  -1.7333333333333393E-006     0.0000000000000000     
  -1.5333333333333345E-006     0.0000000000000000     
  -1.3333333333333364E-006     0.0000000000000000     
  -1.1333333333333383E-006     0.0000000000000000     
  -9.3333333333333343E-007     0.0000000000000000     
  -7.3333333333333535E-007     0.0000000000000000     
  -5.3333333333333726E-007     0.0000000000000000     
  -3.3333333333333918E-007     0.0000000000000000     
  -1.3333333333333432E-007     0.0000000000000000     
   6.6666666666663770E-008     0.0000000000000000     
   2.6666666666666185E-007     0.0000000000000000     
   4.6666666666666672E-007     0.0000000000000000     
   6.6666666666666480E-007     0.0000000000000000     
   8.6666666666666289E-007     0.0000000000000000     
   1.0666666666666610E-006     0.0000000000000000     
   1.2666666666666658E-006     0.0000000000000000     
   1.4666666666666639E-006     0.0000000000000000     
   1.6666666666666620E-006     0.0000000000000000     
   1.8666666666666669E-006     0.0000000000000000     
   2.0666666666666649E-006     1.4096641040529591E-035
   2.2666666666666630E-006     3.1798996207836351E-035
   2.4666666666666611E-006     4.9776951134042870E-035
   2.6666666666666660E-006     6.2397599165954579E-035
   2.8666666666666641E-006     6.2397599165954579E-035
   3.0666666666666622E-006     1.6578307348418105E-035
   3.2666666666666602E-006    -4.2392088676134910E-035
   3.4666666666666651E-006    -1.2447359042436387E-034
   3.6666666666666632E-006    -2.0599110456195332E-034
   3.8666666666666613E-006    -2.8789860961341469E-034
   4.0666666666666661E-006    -2.9841625348190095E-034
   4.2666666666666642E-006    -2.1891571086699245E-034
   4.4666666666666623E-006    -2.6184440869647478E-035
   4.6666666666666604E-006     2.8362706518061805E-034
   4.8666666666666652E-006     6.8156764990084187E-034
   5.0666666666666633E-006     1.0862503605303787E-033
   5.2666666666666614E-006     1.3969984451484929E-033
   5.4666666666666663E-006     1.5094384287309795E-033
   5.6666666666666644E-006     1.2798305865528006E-033
   5.8666666666666624E-006     6.0000179585396226E-034
   6.0666666666666605E-006    -5.4939336613770494E-034
   6.2666666666666654E-006    -2.0876292942474189E-033
   6.4666666666666635E-006    -3.7894580364771013E-033
   6.6666666666666616E-006    -5.2881986400961326E-033
   6.8666666666666664E-006    -6.1152173232751683E-033
   7.0666666666666645E-006    -5.7869065265363037E-033
   7.2666666666666626E-006    -3.9241509546401192E-033
   7.4666666666666607E-006    -4.1446075732971466E-034
   7.6666666666666655E-006     4.4587283165116631E-033
   7.8666666666666636E-006     9.9339381895900366E-033
   8.0666666666666617E-006     1.4799252002293882E-032
   8.2666666666666598E-006     1.7566083585485349E-032
   8.4666666666666647E-006     1.6801118881744238E-032
   8.6666666666666627E-006     1.1584097159274364E-032
   8.8666666666666608E-006     2.0063587372384353E-033
   9.0666666666666657E-006    -1.0433647450280314E-032
   9.2666666666666638E-006    -2.2704859995860676E-032
   9.4666666666666619E-006    -3.0569747395747048E-032
   9.6666666666666599E-006    -2.9468776448031016E-032
   9.8666666666666648E-006    -1.5955609305084783E-032
   1.0066666666666663E-005     1.0502511582771330E-032
   1.0266666666666661E-005     4.5761915731642972E-032
   1.0466666666666666E-005     7.9871855382723348E-032
   1.0666666666666664E-005     9.7281526220520345E-032
   1.0866666666666662E-005     7.9030230814893360E-032
   1.1066666666666660E-005     7.3060382837222553E-033
   1.1266666666666665E-005    -1.2778354750924477E-031
   1.1466666666666663E-005    -3.2012860667949292E-031
   1.1666666666666661E-005    -5.3998989622254635E-031
   1.1866666666666666E-005    -7.2938535794793718E-031
   1.2066666666666664E-005    -8.0349590392829735E-031
   1.2266666666666662E-005    -6.6091897160293724E-031
   1.2466666666666660E-005    -2.0453070380861231E-031
   1.2666666666666665E-005     6.2736185225136920E-031
   1.2866666666666663E-005     1.8229141333794777E-030
   1.3066666666666661E-005     3.2586076382195570E-030
   1.3266666666666666E-005     4.6714818824841857E-030
   1.3466666666666664E-005     5.6545212889243101E-030
   1.3666666666666662E-005     5.6881833093917456E-030
   1.3866666666666660E-005     4.2179641248747947E-030
   1.4066666666666665E-005     7.8087280985011193E-031
   1.4266666666666663E-005    -4.8273877922732937E-030
   1.4466666666666661E-005    -1.2366822736300468E-029
   1.4666666666666666E-005    -2.0986462885569448E-029
   1.4866666666666664E-005    -2.9126708226708680E-029
   1.5066666666666662E-005    -3.4547120693830569E-029
   1.5266666666666661E-005    -3.4531869736083453E-029
   1.5466666666666665E-005    -2.6306352342023707E-029
   1.5666666666666663E-005    -7.6641005397906368E-030
   1.5866666666666662E-005     2.2246588315752633E-029
   1.6066666666666660E-005     6.2085698060600921E-029
   1.6266666666666665E-005     1.0760340321867836E-028
   1.6466666666666663E-005     1.5125632670810286E-028
   1.6666666666666661E-005     1.8239174074635543E-028
   1.6866666666666666E-005     1.8820643621207645E-028
   1.7066666666666664E-005     1.5560388485337614E-028
   1.7266666666666662E-005     7.3928596381971530E-029
   1.7466666666666660E-005    -6.1643480471245306E-029
   1.7666666666666665E-005    -2.4651236434913375E-028
   1.7866666666666663E-005    -4.6354408570529459E-028
   1.8066666666666661E-005    -6.8130551784325945E-028
   1.8266666666666666E-005    -8.5457286455152654E-028
   1.8466666666666664E-005    -9.2793866207403058E-028
   1.8666666666666662E-005    -8.4302874416837223E-028
   1.8866666666666660E-005    -5.4929303499122525E-028
   1.9066666666666665E-005    -1.7583635067961630E-029
   1.9266666666666663E-005     7.4514528067483535E-028
   1.9466666666666661E-005     1.6825621180806761E-027
   1.9666666666666666E-005     2.6803490592267818E-027
   1.9866666666666664E-005     3.5658080622964465E-027
   2.0066666666666662E-005     4.1189389941843494E-027
   2.0266666666666660E-005     4.0971871562064511E-027
   2.0466666666666665E-005     3.2741772019555203E-027
   2.0666666666666663E-005     1.4900992202096958E-027
   2.0866666666666661E-005    -1.2917462507897961E-027
   2.1066666666666659E-005    -4.9309499625228847E-027
   2.1266666666666664E-005    -9.0699452059620938E-027
   2.1466666666666662E-005    -1.3120725924600568E-026
   2.1666666666666660E-005    -1.6290570879236765E-026
   2.1866666666666665E-005    -1.7655910379875497E-026
   2.2066666666666663E-005    -1.6287458576446635E-026
   2.2266666666666661E-005    -1.1421137430253542E-026
   2.2466666666666659E-005    -2.6587012214658804E-027
   2.2666666666666664E-005     9.8290350861027678E-027
   2.2866666666666662E-005     2.5133202425722722E-026
   2.3066666666666660E-005     4.1514868250585048E-026
   2.3266666666666665E-005     5.6432754902747166E-026
   2.3466666666666663E-005     6.6725362096835919E-026
   2.3666666666666661E-005     6.8965215540670363E-026
   2.3866666666666660E-005     5.9977328817034765E-026
   2.4066666666666664E-005     3.7481918561743689E-026
   2.4266666666666662E-005     7.8646509651844269E-028
   2.4466666666666661E-005    -4.8579493598364353E-026
   2.4666666666666665E-005    -1.0641570908869747E-025
   2.4866666666666663E-005    -1.6572364012384563E-025
   2.5066666666666662E-005    -2.1701859325469493E-025
   2.5266666666666660E-005    -2.4915851216662912E-025
   2.5466666666666665E-005    -2.5070071058443291E-025
   2.5666666666666663E-005    -2.1170904167258847E-025
   2.5866666666666661E-005    -1.2583946137940513E-025
   2.6066666666666666E-005     7.5643194274302398E-027
   2.6266666666666664E-005     1.8170516087676647E-025
   2.6466666666666662E-005     3.8127294296471149E-025
   2.6666666666666660E-005     5.8245032177405013E-025
   2.6866666666666665E-005     7.5426284642460236E-025
   2.7066666666666663E-005     8.6140830115443585E-025
   2.7266666666666661E-005     8.6850410499689885E-025
   2.7466666666666666E-005     7.4545279853128753E-025
   2.7666666666666664E-005     4.7339256960234776E-025
   2.7866666666666662E-005     5.0481443403828035E-026
   2.8066666666666667E-005    -5.0337105893778295E-025
   2.8266666666666658E-005    -1.1437598615414692E-024
   2.8466666666666663E-005    -1.8018732840017269E-024
   2.8666666666666668E-005    -2.3880446626657046E-024
   2.8866666666666659E-005    -2.7990463218817357E-024
   2.9066666666666664E-005    -2.9289646132234893E-024
   2.9266666666666669E-005    -2.6829849639858680E-024
   2.9466666666666660E-005    -1.9929204068890568E-024
   2.9666666666666665E-005    -8.3287066626238683E-025
   2.9866666666666656E-005     7.6692233832016943E-025
   3.0066666666666661E-005     2.7101040297551033E-024
   3.0266666666666666E-005     4.8301610072188782E-024
   3.0466666666666657E-005     6.8940566102572535E-024
   3.0666666666666662E-005     8.6148178354775719E-024
   3.0866666666666667E-005     9.6736427196833183E-024
   3.1066666666666658E-005     9.7512153567982265E-024
   3.1266666666666663E-005     8.5669032129553528E-024
   3.1466666666666668E-005     5.9233841711967869E-024
   3.1666666666666659E-005     1.7530820397985810E-024
   3.1866666666666664E-005    -3.8383269799454052E-024
   3.2066666666666656E-005    -1.0537076223996683E-023
   3.2266666666666660E-005    -1.7801581915345724E-023
   3.2466666666666665E-005    -2.4864531278828080E-023
   3.2666666666666657E-005    -3.0763035171504649E-023
   3.2866666666666661E-005    -3.4401794936355885E-023
   3.3066666666666666E-005    -3.4651718692904385E-023
   3.3266666666666658E-005    -3.0482891731398942E-023
   3.3466666666666662E-005    -2.1125791282849133E-023
   3.3666666666666667E-005    -6.2490318693288097E-024
   3.3866666666666659E-005     1.3864478111583522E-023
   3.4066666666666664E-005     3.8166826088584037E-023
   3.4266666666666668E-005     6.4748352570670911E-023
   3.4466666666666660E-005     9.0825216332695315E-023
   3.4666666666666665E-005     1.1283998916913430E-022
   3.4866666666666656E-005     1.2669719556089349E-022
   3.5066666666666661E-005     1.2814404219171573E-022
   3.5266666666666666E-005     1.1328898355283713E-022
   3.5466666666666657E-005     7.9229320746519222E-023
   3.5666666666666662E-005     2.4734430760617220E-023
   3.5866666666666667E-005    -4.9092287724074518E-023
   3.6066666666666658E-005    -1.3827021418081818E-022
   3.6266666666666663E-005    -2.3562649198937239E-022
   3.6466666666666668E-005    -3.3081850150546017E-022
   3.6666666666666659E-005    -4.1078832282826674E-022
   3.6866666666666664E-005    -4.6071047013652841E-022
   3.7066666666666669E-005    -4.6544459482271523E-022
   3.7266666666666660E-005    -4.1143847043191369E-022
   3.7466666666666665E-005    -2.8895202505647270E-022
   3.7666666666666656E-005    -9.4394603669541415E-023
   3.7866666666666661E-005     1.6750248369840318E-022
   3.8066666666666666E-005     4.8200794752906804E-022
   3.8266666666666657E-005     8.2355775937946932E-022
   3.8466666666666662E-005     1.1560985020132080E-021
   3.8666666666666667E-005     1.4348716970374329E-021
   3.8866666666666658E-005     1.6097832380883188E-021
   3.9066666666666663E-005     1.6303391609864017E-021
   3.9266666666666668E-005     1.4519225026743399E-021
   3.9466666666666659E-005     1.0429609545106243E-021
   3.9666666666666664E-005     3.9231140813601398E-022
   3.9866666666666655E-005    -4.8400451030397173E-022
   4.0066666666666660E-005    -1.5377158340390073E-021
   4.0266666666666665E-005    -2.6859115906125836E-021
   4.0466666666666656E-005    -3.8123070182981962E-021
   4.0666666666666661E-005    -4.7729274540718693E-021
   4.0866666666666666E-005    -5.4066047527339583E-021
   4.1066666666666657E-005    -5.5502045995428710E-021
   4.1266666666666662E-005    -5.0579150050066123E-021
   4.1466666666666667E-005    -3.8232635263434726E-021
   4.1666666666666658E-005    -1.8018978538634809E-021
   4.1866666666666663E-005     9.6740408420049653E-022
   4.2066666666666668E-005     4.3464318377698212E-021
   4.2266666666666660E-005     8.0890194049952313E-021
   4.2466666666666664E-005     1.1843212542396959E-020
   4.2666666666666656E-005     1.5166456697562064E-020
   4.2866666666666661E-005     1.7555178207617613E-020
   4.3066666666666665E-005     1.8488793700551488E-020
   4.3266666666666657E-005     1.7486491520620168E-020
   4.3466666666666662E-005     1.4173255119955961E-020
   4.3666666666666666E-005     8.3497291241721862E-021
   4.3866666666666658E-005     5.8773968147521133E-023
   4.4066666666666663E-005    -1.0359773973708209E-020
   4.4266666666666667E-005    -2.2235206170316389E-020
   4.4466666666666659E-005    -3.4561825809187465E-020
   4.4666666666666664E-005    -4.6032171342398375E-020
   4.4866666666666655E-005    -5.5112730693632500E-020
   4.5066666666666660E-005    -6.0163669997291747E-020
   4.5266666666666665E-005    -5.9599474658393762E-020
   4.5466666666666656E-005    -5.2082231734922307E-020
   4.5666666666666661E-005    -3.6733320319981213E-020
   4.5866666666666666E-005    -1.3344374101944512E-020
   4.6066666666666657E-005     1.7436447093560710E-020
   4.6266666666666662E-005     5.3969418453067897E-020
   4.6466666666666667E-005     9.3566599612421081E-020
   4.6666666666666658E-005     1.3253834821815321E-019
   4.6866666666666663E-005     1.6636213828166158E-019
   4.7066666666666668E-005     1.8998389626024718E-019
   4.7266666666666659E-005     1.9824979579921594E-019
   4.7466666666666664E-005     1.8645175749646332E-019
   4.7666666666666655E-005     1.5095403821648319E-019
   4.7866666666666660E-005     8.9851149870077233E-020
   4.8066666666666665E-005     3.5932960069437937E-021
   4.8266666666666656E-005    -1.0449592378858256E-019
   4.8466666666666661E-005    -2.2789068860140850E-019
   4.8666666666666666E-005    -3.5680257361655267E-019
   4.8866666666666657E-005    -4.7845801670807541E-019
   4.9066666666666662E-005    -5.7776244511235006E-019
   4.9266666666666667E-005    -6.3837250183473634E-019
   4.9466666666666658E-005    -6.4415604528013054E-019
   4.9666666666666663E-005    -5.8097971240608678E-019
   4.9866666666666655E-005    -4.3870935163669991E-019
   5.0066666666666659E-005    -2.1326636801601825E-019
   5.0266666666666664E-005     9.1464688439484089E-020
   5.0466666666666656E-005     4.6211199722583846E-019
   5.0666666666666660E-005     8.7492630469020099E-019
   5.0866666666666665E-005     1.2957715019266877E-018
   5.1066666666666657E-005     1.6812089228501124E-018
   5.1266666666666661E-005     1.9808299741363404E-018
   5.1466666666666666E-005     2.1408985216520893E-018
   5.1666666666666658E-005     2.1092481098739728E-018
   5.1866666666666662E-005     1.8412322856249006E-018
   5.2066666666666667E-005     1.3063717180789782E-018
   5.2266666666666659E-005     4.9517750823688005E-019
   5.2466666666666664E-005    -5.7452739343544345E-019
   5.2666666666666655E-005    -1.8525766541357591E-018
   5.2866666666666660E-005    -3.2535894148193794E-018
   5.3066666666666665E-005    -4.6571265239373584E-018
   5.3266666666666656E-005    -5.9116455981378376E-018
   5.3466666666666661E-005    -6.8428454134903273E-018
   5.3666666666666666E-005    -7.2666427149354392E-018
   5.3866666666666657E-005    -7.0066366873528711E-018
   5.4066666666666662E-005    -5.9153430954759496E-018
   5.4266666666666667E-005    -3.8979070705116875E-018
   5.4466666666666658E-005    -9.3633092008973273E-019
   5.4666666666666663E-005     2.8882988048952963E-018
   5.4866666666666668E-005     7.3786173272761300E-018
   5.5066666666666659E-005     1.2212115715012351E-017
   5.5266666666666664E-005     1.6943868405862713E-017
   5.5466666666666655E-005     2.1023748180100859E-017
   5.5666666666666660E-005     2.3830082485278889E-017
   5.5866666666666665E-005     2.4720515944912621E-017
   5.6066666666666656E-005     2.3098848206337112E-017
   5.6266666666666661E-005     1.8494663309554679E-017
   5.6466666666666666E-005     1.0649928052743692E-017
   5.6666666666666657E-005    -3.9547347404855985E-019
   5.6866666666666662E-005    -1.4229559598192433E-017
   5.7066666666666667E-005    -3.0017140349908095E-017
   5.7266666666666658E-005    -4.6484000166291078E-017
   5.7466666666666663E-005    -6.1947767832333056E-017
   5.7666666666666654E-005    -7.4404353468663005E-017
   5.7866666666666659E-005    -8.1674721805077383E-017
   5.8066666666666664E-005    -8.1610598763992272E-017
   5.8266666666666655E-005    -7.2350622826371447E-017
   5.8466666666666660E-005    -5.2609659722772922E-017
   5.8666666666666665E-005    -2.1975854571845321E-017
   5.8866666666666656E-005     1.8817933764746527E-017
   5.9066666666666661E-005     6.7687263082928195E-017
   5.9266666666666666E-005     1.2109499327813718E-016
   5.9466666666666657E-005     1.7409524768615764E-016
   5.9666666666666662E-005     2.2055395928676175E-016
   5.9866666666666667E-005     2.5356458024671554E-016
   6.0066666666666659E-005     2.6605863385607169E-016
   6.0266666666666663E-005     2.5158652008686034E-016
   6.0466666666666655E-005     2.0521875864896766E-016
   6.0666666666666660E-005     1.2448900135822596E-016
   6.0866666666666664E-005     1.0277629775465213E-017
   6.1066666666666656E-005    -1.3248335125397125E-016
   6.1266666666666661E-005    -2.9441120888083728E-016
   6.1466666666666665E-005    -4.6169913070259793E-016
   6.1666666666666657E-005    -6.1666566128734429E-016
   6.1866666666666662E-005    -7.3888605694991702E-016
   6.2066666666666666E-005    -8.0690550253195671E-016
   6.2266666666666658E-005    -8.0046921680312650E-016
   6.2466666666666663E-005    -7.0312300242786037E-016
   6.2666666666666668E-005    -5.0496599716482122E-016
   6.2866666666666659E-005    -2.0526582191709948E-016
   6.3066666666666664E-005     1.8539801562964962E-016
   6.3266666666666655E-005     6.4381724947202169E-016
   6.3466666666666660E-005     1.1339973336304534E-015
   6.3666666666666665E-005     1.6084283224423492E-015
   6.3866666666666656E-005     2.0109453669994075E-015
   6.4066666666666661E-005     2.2811880524473398E-015
   6.4266666666666666E-005     2.3604813477386567E-015
   6.4466666666666657E-005     2.1987668762400497E-015
   6.4666666666666662E-005     1.7620104306143676E-015
   6.4866666666666667E-005     1.0393436252362719E-015
   6.5066666666666658E-005     4.9077787104351156E-017
   6.5266666666666663E-005    -1.1573114919871544E-015
   6.5466666666666654E-005    -2.4940796193443412E-015
   6.5666666666666659E-005    -3.8436788135447729E-015
   6.5866666666666664E-005    -5.0632156751778332E-015
   6.6066666666666655E-005    -5.9949565758387734E-015
   6.6266666666666660E-005    -6.4804949194462516E-015
   6.6466666666666665E-005    -6.3777252589888346E-015
   6.6666666666666656E-005    -5.5792899800503025E-015
   6.6866666666666661E-005    -4.0307824623626171E-015
   6.7066666666666666E-005    -1.7466790283899463E-015
   6.7266666666666657E-005     1.1781063626004843E-015
   6.7466666666666662E-005     4.5630791422409007E-015
   6.7666666666666667E-005     8.1451171016753456E-015
   6.7866666666666658E-005     1.1590637913967868E-014
   6.8066666666666663E-005     1.4517314623650399E-014
   6.8266666666666655E-005     1.6524733580732150E-014
   6.8466666666666659E-005     1.7232344904868392E-014
   6.8666666666666664E-005     1.6322033514256512E-014
   6.8866666666666656E-005     1.3581744710551395E-014
   6.9066666666666660E-005     8.9458851093506160E-015
   6.9266666666666665E-005     2.5278940216316801E-015
   6.9466666666666657E-005    -5.3595848801255876E-015
   6.9666666666666661E-005    -1.4200968146641652E-014
   6.9866666666666666E-005    -2.3293477200260829E-014
   7.0066666666666658E-005    -3.1783976221343851E-014
   7.0266666666666662E-005    -3.8726685161645513E-014
   7.0466666666666654E-005    -4.3159543999674380E-014
   7.0666666666666659E-005    -4.4194824937258265E-014
   7.0866666666666664E-005    -4.1117594897464860E-014
   7.1066666666666655E-005    -3.3483978122746810E-014
   7.1266666666666660E-005    -2.1209852382980503E-014
   7.1466666666666665E-005    -4.6401832808800388E-015
   7.1666666666666656E-005     1.5410522724991320E-014
   7.1866666666666661E-005     3.7655015688647583E-014
   7.2066666666666666E-005     6.0373540476839349E-014
   7.2266666666666657E-005     8.1500866439768865E-014
   7.2466666666666662E-005     9.8759542210835605E-014
   7.2666666666666667E-005     1.0983501976848109E-013
   7.2866666666666658E-005     1.1258343839441395E-013
   7.3066666666666663E-005     1.0525878535753638E-013
   7.3266666666666654E-005     8.6742306317378476E-014
   7.3466666666666659E-005     5.6753968793446172E-014
   7.3666666666666664E-005     1.6023976172644880E-014
   7.3866666666666655E-005    -3.3597633003609392E-014
   7.4066666666666660E-005    -8.9113842715628222E-014
   7.4266666666666665E-005    -1.4645253868135477E-013
   7.4466666666666656E-005    -2.0064834938948034E-013
   7.4666666666666661E-005    -2.4613758297167831E-013
   7.4866666666666666E-005    -2.7715969710268018E-013
   7.5066666666666657E-005    -2.8824856455715586E-013
   7.5266666666666662E-005    -2.7478507750450243E-013
   7.5466666666666653E-005    -2.3357249294420068E-013