  -3.3333333333333335E-005     0.0000000000000000     
  -3.3133333333333337E-005     0.0000000000000000     
  -3.2933333333333332E-005     0.0000000000000000     
  -3.2733333333333334E-005     0.0000000000000000     
  -3.2533333333333336E-005     0.0000000000000000     
  -3.2333333333333338E-005     0.0000000000000000     
  -3.2133333333333333E-005     0.0000000000000000     
  -3.1933333333333335E-005     0.0000000000000000     
  -3.1733333333333337E-005     0.0000000000000000     
  -3.1533333333333332E-005     0.0000000000000000     
  -3.1333333333333334E-005     0.0000000000000000     
  -3.1133333333333336E-005     0.0000000000000000     
  -3.0933333333333338E-005     0.0000000000000000     
  -3.0733333333333333E-005     0.0000000000000000     
  -3.0533333333333335E-005     0.0000000000000000     
  -3.0333333333333337E-005     0.0000000000000000     
  -3.0133333333333335E-005     0.0000000000000000     
  -2.9933333333333334E-005     0.0000000000000000     
  -2.9733333333333336E-005     0.0000000000000000     
  -2.9533333333333334E-005     0.0000000000000000     
  -2.9333333333333336E-005     0.0000000000000000     
  -2.9133333333333334E-005     0.0000000000000000     
  -2.8933333333333336E-005     0.0000000000000000     
  -2.8733333333333335E-005     0.0000000000000000     
  -2.8533333333333333E-005     0.0000000000000000     
  -2.8333333333333335E-005     0.0000000000000000     
  -2.8133333333333337E-005     0.0000000000000000     
  -2.7933333333333336E-005     0.0000000000000000     
  -2.7733333333333334E-005     0.0000000000000000     
  -2.7533333333333336E-005     0.0000000000000000     
  -2.7333333333333335E-005     0.0000000000000000     
  -2.7133333333333333E-005     0.0000000000000000     
  -2.6933333333333335E-005     0.0000000000000000     
  -2.6733333333333337E-005     0.0000000000000000     
  -2.6533333333333336E-005     0.0000000000000000     
  -2.6333333333333334E-005     0.0000000000000000     
  -2.6133333333333336E-005     0.0000000000000000     
  -2.5933333333333335E-005     0.0000000000000000     
  -2.5733333333333333E-005     0.0000000000000000     
  -2.5533333333333335E-005     0.0000000000000000     
  -2.5333333333333337E-005     0.0000000000000000     
  -2.5133333333333336E-005     0.0000000000000000     
  -2.4933333333333334E-005     0.0000000000000000     
  -2.4733333333333336E-005     0.0000000000000000     
  -2.4533333333333334E-005     0.0000000000000000     
  -2.4333333333333333E-005     0.0000000000000000     
  -2.4133333333333335E-005     0.0000000000000000     
  -2.3933333333333337E-005     0.0000000000000000     
  -2.3733333333333335E-005     0.0000000000000000     
  -2.3533333333333334E-005     0.0000000000000000     
  -2.3333333333333336E-005     0.0000000000000000     
  -2.3133333333333338E-005     0.0000000000000000     
  -2.2933333333333336E-005     0.0000000000000000     
  -2.2733333333333335E-005     0.0000000000000000     
  -2.2533333333333337E-005     0.0000000000000000     
  -2.2333333333333335E-005     0.0000000000000000     
  -2.2133333333333334E-005     0.0000000000000000     
  -2.1933333333333336E-005     0.0000000000000000     
  -2.1733333333333338E-005     0.0000000000000000     
  -2.1533333333333336E-005     0.0000000000000000     
  -2.1333333333333335E-005     0.0000000000000000     
  -2.1133333333333337E-005     0.0000000000000000     
  -2.0933333333333335E-005     0.0000000000000000     
  -2.0733333333333334E-005     0.0000000000000000     
  -2.0533333333333336E-005     0.0000000000000000     
  -2.0333333333333337E-005     0.0000000000000000     
  -2.0133333333333336E-005     0.0000000000000000     
  -1.9933333333333334E-005     0.0000000000000000     
  -1.9733333333333336E-005     0.0000000000000000     
  -1.9533333333333335E-005     0.0000000000000000     
  -1.9333333333333333E-005     0.0000000000000000     
  -1.9133333333333335E-005     0.0000000000000000     
  -1.8933333333333337E-005     0.0000000000000000     
  -1.8733333333333336E-005     0.0000000000000000     
  -1.8533333333333334E-005     0.0000000000000000     
  -1.8333333333333336E-005     0.0000000000000000     
  -1.8133333333333335E-005     0.0000000000000000     
  -1.7933333333333337E-005     0.0000000000000000     
  -1.7733333333333335E-005     0.0000000000000000     
  -1.7533333333333337E-005     0.0000000000000000     
  -1.7333333333333336E-005     0.0000000000000000     
  -1.7133333333333334E-005     0.0000000000000000     
  -1.6933333333333336E-005     0.0000000000000000     
  -1.6733333333333335E-005     0.0000000000000000     
  -1.6533333333333337E-005     0.0000000000000000     
  -1.6333333333333335E-005     0.0000000000000000     
  -1.6133333333333337E-005     0.0000000000000000     
  -1.5933333333333336E-005     0.0000000000000000     
  -1.5733333333333334E-005     0.0000000000000000     
  -1.5533333333333336E-005     0.0000000000000000     
  -1.5333333333333334E-005     0.0000000000000000     
  -1.5133333333333336E-005     0.0000000000000000     
  -1.4933333333333335E-005     0.0000000000000000     
  -1.4733333333333337E-005     0.0000000000000000     
  -1.4533333333333335E-005     0.0000000000000000     
  -1.4333333333333337E-005     0.0000000000000000     
  -1.4133333333333336E-005     0.0000000000000000     
  -1.3933333333333334E-005     0.0000000000000000     
  -1.3733333333333336E-005     0.0000000000000000     
  -1.3533333333333335E-005     0.0000000000000000     
  -1.3333333333333337E-005     0.0000000000000000     
  -1.3133333333333335E-005     0.0000000000000000     
  -1.2933333333333337E-005     0.0000000000000000     
  -1.2733333333333336E-005     0.0000000000000000     
  -1.2533333333333338E-005     0.0000000000000000     
  -1.2333333333333336E-005     0.0000000000000000     
  -1.2133333333333335E-005     0.0000000000000000     
  -1.1933333333333337E-005     0.0000000000000000     
  -1.1733333333333335E-005     0.0000000000000000     
  -1.1533333333333337E-005     0.0000000000000000     
  -1.1333333333333336E-005     0.0000000000000000     
  -1.1133333333333337E-005     0.0000000000000000     
  -1.0933333333333336E-005     0.0000000000000000     
  -1.0733333333333334E-005     0.0000000000000000     
  -1.0533333333333336E-005     0.0000000000000000     
  -1.0333333333333335E-005     0.0000000000000000     
  -1.0133333333333337E-005     0.0000000000000000     
  -9.9333333333333354E-006     0.0000000000000000     
  -9.7333333333333373E-006     0.0000000000000000     
  -9.5333333333333358E-006     0.0000000000000000     
  -9.3333333333333343E-006     0.0000000000000000     
  -9.1333333333333362E-006     0.0000000000000000     
  -8.9333333333333348E-006     0.0000000000000000     
  -8.7333333333333367E-006     0.0000000000000000     
  -8.5333333333333352E-006     0.0000000000000000     
  -8.3333333333333371E-006     0.0000000000000000     
  -8.1333333333333356E-006     0.0000000000000000     
  -7.9333333333333376E-006     0.0000000000000000     
  -7.7333333333333361E-006     0.0000000000000000     
  -7.5333333333333346E-006     0.0000000000000000     
  -7.3333333333333365E-006     0.0000000000000000     
  -7.1333333333333351E-006     0.0000000000000000     
  -6.9333333333333370E-006     0.0000000000000000     
  -6.7333333333333355E-006     0.0000000000000000     
  -6.5333333333333374E-006     0.0000000000000000     
  -6.3333333333333359E-006     0.0000000000000000     
  -6.1333333333333379E-006     0.0000000000000000     
  -5.9333333333333364E-006     0.0000000000000000     
  -5.7333333333333349E-006     0.0000000000000000     
  -5.5333333333333368E-006     0.0000000000000000     
  -5.3333333333333354E-006     0.0000000000000000     
  -5.1333333333333373E-006     0.0000000000000000     
  -4.9333333333333358E-006     0.0000000000000000     
  -4.7333333333333377E-006     0.0000000000000000     
  -4.5333333333333362E-006     0.0000000000000000     
  -4.3333333333333348E-006     0.0000000000000000     
  -4.1333333333333367E-006     0.0000000000000000     
  -3.9333333333333352E-006     0.0000000000000000     
  -3.7333333333333371E-006     0.0000000000000000     
  -3.5333333333333356E-006     0.0000000000000000     
  -3.3333333333333376E-006     0.0000000000000000     
  -3.1333333333333361E-006     0.0000000000000000     
  -2.9333333333333346E-006     0.0000000000000000     
  -2.7333333333333365E-006     0.0000000000000000     
  -2.5333333333333384E-006     0.0000000000000000     
  -2.3333333333333336E-006     0.0000000000000000     
  -2.1333333333333355E-006     0.0000000000000000     
  -1.9333333333333374E-006     0.0000000000000000     
  -1.7333333333333393E-006     0.0000000000000000     
  -1.5333333333333345E-006     0.0000000000000000     
  -1.3333333333333364E-006     0.0000000000000000     
  -1.1333333333333383E-006     0.0000000000000000     
  -9.3333333333333343E-007     0.0000000000000000     
  -7.3333333333333535E-007     0.0000000000000000     
  -5.3333333333333726E-007     0.0000000000000000     
  -3.3333333333333918E-007     0.0000000000000000     
  -1.3333333333333432E-007     0.0000000000000000     
   6.6666666666663770E-008     0.0000000000000000     
   2.6666666666666185E-007     0.0000000000000000     
   4.6666666666666672E-007     2.2855529679052312E-038
   6.6666666666666480E-007     6.0333594820349447E-038
   8.6666666666666289E-007     1.0329040484942057E-037
   1.0666666666666610E-006     1.3498387489752325E-037
   1.2666666666666658E-006     1.1232009189383683E-037
   1.4666666666666639E-006     2.8306526054635742E-038
   1.6666666666666620E-006    -1.2267665163854068E-037
   1.8666666666666669E-006    -3.2677634469722373E-037
   2.0666666666666649E-006    -5.4231506132794456E-037
   2.2666666666666630E-006    -7.5933301103838209E-037
   2.4666666666666611E-006    -8.8295632386748204E-037
   2.6666666666666660E-006    -8.5414670363818440E-037
   2.8666666666666641E-006    -6.1166727293484209E-037
   3.0666666666666622E-006    -1.1485977159941598E-037
   3.2666666666666602E-006     6.3996803124499867E-037
   3.4666666666666651E-006     1.6056521735587252E-036
   3.6666666666666632E-006     2.6737052716932832E-036
   3.8666666666666613E-006     3.6673952942787215E-036
   4.0666666666666661E-006     4.3465690109040279E-036
   4.2666666666666642E-006     4.4270165468060213E-036
   4.4666666666666623E-006     3.6186259822975389E-036
   4.6666666666666604E-006     1.6800283428406955E-036
   4.8666666666666652E-006    -1.5080005488881968E-036
   5.0666666666666633E-006    -5.8589156029014203E-036
   5.2666666666666614E-006    -1.0999548482180877E-035
   5.4666666666666663E-006    -1.6211110291678514E-035
   5.6666666666666644E-006    -2.0415670774535297E-035
   5.8666666666666624E-006    -2.2233400883512594E-035
   6.0666666666666605E-006    -2.0131807255910946E-035
   6.2666666666666654E-006    -1.2678995140423838E-035
   6.4666666666666635E-006     1.1039369214272759E-036
   6.6666666666666616E-006     2.1319102467989536E-035
   6.8666666666666664E-006     4.6751889890598640E-035
   7.0666666666666645E-006     7.4496874127303333E-035
   7.2666666666666626E-006     9.9762713227474973E-035
   7.4666666666666607E-006     1.1597035816410315E-034
   7.6666666666666655E-006     1.1526499267698766E-034
   7.8666666666666636E-006     8.9528915658457535E-035
   8.0666666666666617E-006     3.1923895352470474E-035
   8.2666666666666598E-006    -6.1099843071153456E-035
   8.4666666666666647E-006    -1.8751294177718901E-034
   8.6666666666666627E-006    -3.3746123965829885E-034
   8.8666666666666608E-006    -4.9153479950626268E-034
   9.0666666666666657E-006    -6.2014044772419623E-034
   9.2666666666666638E-006    -6.8462127198359123E-034
   9.4666666666666619E-006    -6.4072078241320206E-034
   9.6666666666666599E-006    -4.4479714411756853E-034
   9.8666666666666648E-006    -6.2828755340979328E-035
   1.0066666666666663E-005     5.1829143865387805E-034
   1.0266666666666661E-005     1.2783850040077777E-033
   1.0466666666666666E-005     2.1525180517807477E-033
   1.0666666666666664E-005     3.0231510651241443E-033
   1.0866666666666662E-005     3.7191311482032809E-033
   1.1066666666666660E-005     4.0248044951392008E-033
   1.1266666666666665E-005     3.7019358699026586E-033
   1.1466666666666663E-005     2.5257178553706462E-033
   1.1666666666666661E-005     3.3384843123944348E-034
   1.1866666666666666E-005    -2.9153769675949568E-033
   1.2066666666666664E-005    -7.0835465904703669E-033
   1.2266666666666662E-005    -1.1802117565889312E-032
   1.2466666666666660E-005    -1.6445377556986950E-032
   1.2666666666666665E-005    -2.0140645435184569E-032
   1.2866666666666663E-005    -2.1828252716150218E-032
   1.3066666666666661E-005    -2.0379048913842776E-032
   1.3266666666666666E-005    -1.4769096164091475E-032
   1.3466666666666664E-005    -4.3006188161962960E-033
   1.3666666666666662E-005     1.1153989653780243E-032
   1.3866666666666660E-005     3.0920047651027967E-032
   1.4066666666666665E-005     5.3344368573225211E-032
   1.4266666666666663E-005     7.5723042111044150E-032
   1.4466666666666661E-005     9.4378125703650344E-032
   1.4666666666666666E-005     1.0491696153123002E-031
   1.4866666666666664E-005     1.0268850636071516E-031
   1.5066666666666662E-005     8.3424781180611957E-032
   1.5266666666666661E-005     4.4025372620852592E-032
   1.5466666666666665E-005    -1.6587547721247152E-032
   1.5666666666666663E-005    -9.6644743298264649E-032
   1.5866666666666662E-005    -1.9085836444498917E-031
   1.6066666666666660E-005    -2.9003917215296361E-031
   1.6266666666666665E-005    -3.8114111281626768E-031
   1.6466666666666663E-005    -4.4786226620848878E-031
   1.6666666666666661E-005    -4.7190568660088575E-031
   1.6866666666666666E-005    -4.3495815942290204E-031
   1.7066666666666664E-005    -3.2137303201904742E-031
   1.7266666666666662E-005    -1.2143634821254474E-031
   1.7466666666666660E-005     1.6504902239923889E-031
   1.7666666666666665E-005     5.2530331682314672E-031
   1.7866666666666663E-005     9.3086626517322808E-031
   1.8066666666666661E-005     1.3364479273933745E-030
   1.8266666666666666E-005     1.6812125211675139E-030
   1.8466666666666664E-005     1.8932899457281794E-030
   1.8666666666666662E-005     1.8980005747698906E-030
   1.8866666666666660E-005     1.6296805415393300E-030
   1.9066666666666665E-005     1.0461361816103423E-030
   1.9266666666666663E-005     1.4370838090285708E-031
   1.9466666666666661E-005    -1.0300810916877153E-030
   1.9666666666666666E-005    -2.3700230584894740E-030
   1.9866666666666664E-005    -3.7165760995598053E-030
   2.0066666666666662E-005    -4.8718226072089530E-030
   2.0266666666666660E-005    -5.6285430518502337E-030
   2.0466666666666665E-005    -5.8096365141932811E-030
   2.0666666666666663E-005    -5.3111520539643708E-030
   2.0866666666666661E-005    -4.1384792657422491E-030
   2.1066666666666659E-005    -2.4230506430900961E-030
   2.1266666666666664E-005    -4.0753914243290976E-031
   2.1466666666666662E-005     1.6077779784784246E-030
   2.1666666666666660E-005     3.3557414635748965E-030
   2.1866666666666665E-005     4.7155006664592019E-030
   2.2066666666666663E-005     5.8193365054971705E-030
   2.2266666666666661E-005     7.1123938330966082E-030
   2.2466666666666659E-005     9.3200376754663179E-030
   2.2666666666666664E-005     1.3285242303049901E-029
   2.2866666666666662E-005     1.9662030955469727E-029
   2.3066666666666660E-005     2.8490976807659682E-029
   2.3266666666666665E-005     3.8734579893945593E-029
   2.3466666666666663E-005     4.7903938377704299E-029
   2.3666666666666661E-005     5.1947867648713864E-029
   2.3866666666666660E-005     4.5583012238785394E-029
   2.4066666666666664E-005     2.3199922133591546E-029
   2.4266666666666662E-005    -1.9624431687203874E-029
   2.4466666666666661E-005    -8.4142488989599730E-029
   2.4666666666666665E-005    -1.6631948221151722E-028
   2.4866666666666663E-005    -2.5512738602811812E-028
   2.5066666666666662E-005    -3.3193587962271157E-028
   2.5266666666666660E-005    -3.7170137370470120E-028
   2.5466666666666665E-005    -3.4647900996701708E-028
   2.5666666666666663E-005    -2.3137903277337077E-028
   2.5866666666666661E-005    -1.2470980187421745E-029
   2.6066666666666666E-005     3.0461526335886617E-028
   2.6266666666666664E-005     6.8738616016017605E-028
   2.6466666666666662E-005     1.0729948906604162E-027
   2.6666666666666660E-005     1.3711436757121321E-027
   2.6866666666666665E-005     1.4753531449975005E-027
   2.7066666666666663E-005     1.2831824106990838E-027
   2.7266666666666661E-005     7.2385845848200933E-028
   2.7466666666666666E-005    -2.1081915283805372E-028
   2.7666666666666664E-005    -1.4389959209898444E-027
   2.7866666666666662E-005    -2.7732343493286450E-027
   2.8066666666666667E-005    -3.9258028875013086E-027
   2.8266666666666658E-005    -4.5417919357281332E-027
   2.8466666666666663E-005    -4.2626488051466139E-027
   2.8666666666666668E-005    -2.8158761716343283E-027
   2.8866666666666659E-005    -1.1824381708661542E-028
   2.9066666666666664E-005     3.6285714228821044E-027
   2.9266666666666669E-005     7.8772360507025225E-027
   2.9466666666666660E-005     1.1737889735603066E-026
   2.9666666666666665E-005     1.4069033799545421E-026
   2.9866666666666656E-005     1.3666972042123275E-026
   3.0066666666666661E-005     9.5438880615126157E-027
   3.0266666666666666E-005     1.2586971003511167E-027
   3.0466666666666657E-005    -1.0761729832174463E-026
   3.0666666666666662E-005    -2.4994088653979743E-026
   3.0866666666666667E-005    -3.8773653642139807E-026
   3.1066666666666658E-005    -4.8511549871414282E-026
   3.1266666666666663E-005    -5.0217276689680059E-026
   3.1466666666666668E-005    -4.0310810745721169E-026
   3.1666666666666659E-005    -1.6632799385890644E-026
   3.1866666666666664E-005     2.0518497093416021E-026
   3.2066666666666656E-005     6.7560950684739631E-026
   3.2266666666666660E-005     1.1728228038406856E-025
   3.2466666666666665E-005     1.5922128154923843E-025
   3.2666666666666657E-005     1.8093628033916051E-025
   3.2866666666666661E-005     1.7016588844446817E-025
   3.3066666666666666E-005     1.1768050722978544E-025
   3.3266666666666658E-005     2.0396776780186793E-026
   3.3466666666666662E-005    -1.1587222849384093E-025
   3.3666666666666667E-005    -2.7477472395570856E-025
   3.3866666666666659E-005    -4.2961078936258160E-025
   3.4066666666666664E-005    -5.4588923191880478E-025
   3.4266666666666668E-005    -5.8641109377155168E-025
   3.4466666666666660E-005    -5.1851763205228557E-025
   3.4666666666666665E-005    -3.2254456584991625E-025
   3.4866666666666656E-005     3.1443502644043767E-029
   3.5066666666666661E-005     4.2064163808544500E-025
   3.5266666666666666E-005     8.8181445644307983E-025
   3.5466666666666657E-005     1.3010840681991192E-024
   3.5666666666666662E-005     1.5813736447875180E-024
   3.5866666666666667E-005     1.6273869153129281E-024
   3.6066666666666658E-005     1.3660885733720462E-024
   3.6266666666666663E-005     7.6793351008924304E-025
   3.6466666666666668E-005    -1.3555187986663129E-025
   3.6666666666666659E-005    -1.2425865808105208E-024
   3.6866666666666664E-005    -2.3844979440358309E-024
   3.7066666666666669E-005    -3.3440874790236213E-024
   3.7266666666666660E-005    -3.8887904120523934E-024
   3.7466666666666665E-005    -3.8151317083187392E-024
   3.7666666666666656E-005    -2.9976292357814155E-024
   3.7866666666666661E-005    -1.4326605451636474E-024
   3.8066666666666666E-005     7.3337943028829967E-025
   3.8266666666666657E-005     3.2013797802559720E-024
   3.8466666666666662E-005     5.5487127121098042E-024
   3.8666666666666667E-005     7.2912078441298667E-024
   3.8866666666666658E-005     7.9717123931315308E-024
   3.9066666666666663E-005     7.2616981353873591E-024
   3.9266666666666668E-005     5.0563577998905933E-024
   3.9466666666666659E-005     1.5406743385349029E-024
   3.9666666666666664E-005    -2.7946107542269042E-024
   3.9866666666666655E-005    -7.2015490690860674E-024
   4.0066666666666660E-005    -1.0790993194447412E-023
   4.0266666666666665E-005    -1.2704085808108760E-023
   4.0466666666666656E-005    -1.2311692983216440E-023
   4.0666666666666661E-005    -9.4013508121672765E-024
   4.0866666666666666E-005    -4.3048707577762373E-024
   4.1066666666666657E-005     2.0771642434641928E-024
   4.1266666666666662E-005     8.3836098039054403E-024
   4.1466666666666667E-005     1.3038525755459923E-023
   4.1666666666666658E-005     1.4607291628044973E-023
   4.1866666666666663E-005     1.2202207767041721E-023
   4.2066666666666668E-005     5.8490588799982210E-024
   4.2266666666666660E-005    -3.2875005141398550E-024
   4.2466666666666664E-005    -1.2914537331542716E-023
   4.2666666666666656E-005    -1.9920113630249254E-023
   4.2866666666666661E-005    -2.0988190275151432E-023
   4.3066666666666665E-005    -1.3453437403752682E-023
   4.3266666666666657E-005     3.7469035230566265E-024
   4.3466666666666662E-005     2.9231786734711005E-023
   4.3666666666666666E-005     5.8687553168519602E-023
   4.3866666666666658E-005     8.4960691834650236E-023
   4.4066666666666663E-005     9.8891931244642612E-023
   4.4266666666666667E-005     9.0925635170486329E-023
   4.4466666666666659E-005     5.3359416220701361E-023
   4.4666666666666664E-005    -1.7088006739475384E-023
   4.4866666666666655E-005    -1.1688029491196114E-022
   4.5066666666666660E-005    -2.3403493671409641E-022
   4.5266666666666665E-005    -3.4786660608262767E-022
   4.5466666666666656E-005    -4.3058512172181184E-022
   4.5666666666666661E-005    -4.5097388183863479E-022
   4.5866666666666666E-005    -3.8000028076606658E-022
   4.6066666666666657E-005    -1.9776475312271715E-022
   4.6266666666666662E-005     9.9246849232232408E-023
   4.6466666666666667E-005     4.9199298283589558E-022
   4.6666666666666658E-005     9.3533831466377904E-022
   4.6866666666666663E-005     1.3586023528012585E-021
   4.7066666666666668E-005     1.6712470389069135E-021
   4.7266666666666659E-005     1.7740556329915423E-021
   4.7466666666666664E-005     1.5752219922749124E-021
   4.7666666666666655E-005     1.0097130800628768E-021
   4.7866666666666660E-005     5.9275096770728212E-023
   4.8066666666666665E-005    -1.2303115067505247E-021
   4.8266666666666656E-005    -2.7384555329165654E-021
   4.8466666666666661E-005    -4.2689628191125356E-021
   4.8666666666666666E-005    -5.5618731776174105E-021
   4.8866666666666657E-005    -6.3191097724860410E-021
   4.9066666666666662E-005    -6.2431759655027369E-021
   4.9266666666666667E-005    -5.0859325170825783E-021
   4.9466666666666658E-005    -2.7023200993895724E-021
   4.9666666666666663E-005     8.9794605532081341E-022
   4.9866666666666655E-005     5.5088362792891997E-021
   5.0066666666666659E-005     1.0705045946853805E-020
   5.0266666666666664E-005     1.5845261787738392E-020
   5.0466666666666656E-005     2.0107463374695587E-020
   5.0666666666666660E-005     2.2559225094715627E-020
   5.0866666666666665E-005     2.2262270485983358E-020
   5.1066666666666657E-005     1.8406261431816583E-020
   5.1266666666666661E-005     1.0462107686149669E-020
   5.1466666666666666E-005    -1.6595278727602440E-021
   5.1666666666666658E-005    -1.7463362775211361E-020
   5.1866666666666662E-005    -3.5760649623672618E-020
   5.2066666666666667E-005    -5.4621288474547968E-020
   5.2266666666666659E-005    -7.1412279427550161E-020
   5.2466666666666664E-005    -8.2945665170725562E-020
   5.2666666666666655E-005    -8.5753032159199575E-020
   5.2866666666666660E-005    -7.6492738739319895E-020
   5.3066666666666665E-005    -5.2480150846000062E-020
   5.3266666666666656E-005    -1.2309115560068916E-020
   5.3466666666666661E-005     4.3492762404777525E-020
   5.3666666666666666E-005     1.1186075868419112E-019
   5.3866666666666657E-005     1.8675348454958911E-019
   5.4066666666666662E-005     2.5900785322776386E-019
   5.4266666666666667E-005     3.1662367122907303E-019
   5.4466666666666658E-005     3.4559673200890266E-019
   5.4666666666666663E-005     3.3137527423121988E-019
   5.4866666666666668E-005     2.6094089677111786E-019
   5.5066666666666659E-005     1.2541036485872185E-019
   5.5266666666666664E-005    -7.7070963836888603E-020
   5.5466666666666655E-005    -3.3851006890600774E-019
   5.5666666666666660E-005    -6.3881075246302459E-019
   5.5866666666666665E-005    -9.4465752693084465E-019
   5.6066666666666656E-005    -1.2101326659284602E-018
   5.6266666666666661E-005    -1.3795864046742358E-018
   5.6466666666666666E-005    -1.3930864058614075E-018
   5.6666666666666657E-005    -1.1944605918503008E-018
   5.6866666666666662E-005    -7.4152585332800852E-019
   5.7066666666666667E-005    -1.7588431837594525E-020
   5.7266666666666658E-005     9.5720771797965232E-019
   5.7466666666666663E-005     2.1165665903435357E-018
   5.7666666666666654E-005     3.3429321588054663E-018
   5.7866666666666659E-005     4.4687894925779161E-018
   5.8066666666666664E-005     5.2862705852681469E-018
   5.8266666666666655E-005     5.5662339994897819E-018
   5.8466666666666660E-005     5.0868654637224388E-018
   5.8666666666666665E-005     3.6703542334917187E-018
   5.8866666666666656E-005     1.2245029645176143E-018
   5.9066666666666661E-005    -2.2156256045998236E-018
   5.9266666666666666E-005    -6.4524066517882539E-018
   5.9466666666666657E-005    -1.1104040282867954E-017
   5.9666666666666662E-005    -1.5604098856961600E-017
   5.9866666666666667E-005    -1.9228729854913837E-017
   6.0066666666666659E-005    -2.1155777786392898E-017
   6.0266666666666663E-005    -2.0556604546606437E-017
   6.0466666666666655E-005    -1.6716762659963829E-017
   6.0666666666666660E-005    -9.1763661756651900E-018
   6.0866666666666664E-005     2.1245352347745653E-018
   6.1066666666666656E-005     1.6715172818826502E-017
   6.1266666666666661E-005     3.3500953774740530E-017
   6.1466666666666665E-005     5.0732327000469523E-017
   6.1666666666666657E-005     6.6058008443774349E-017
   6.1866666666666662E-005     7.6679397938204350E-017
   6.2066666666666666E-005     7.9613791382734164E-017
   6.2266666666666658E-005     7.2060838296736970E-017
   6.2466666666666663E-005     5.1851270758682255E-017
   6.2666666666666668E-005     1.7939529165580541E-017
   6.2866666666666659E-005    -2.9114653214388239E-017
   6.3066666666666664E-005    -8.6744525014304690E-017
   6.3266666666666655E-005    -1.5013209003829245E-016
   6.3466666666666660E-005    -2.1219963362332318E-016
   6.3666666666666665E-005    -2.6390616431842091E-016
   6.3866666666666656E-005    -2.9489729991344284E-016
   6.4066666666666661E-005    -2.9452391720238130E-016
   6.4266666666666666E-005    -2.5320117664256385E-016
   6.4466666666666657E-005    -1.6402659351192537E-016
   6.4666666666666662E-005    -2.4518392707874064E-017
   6.4866666666666667E-005     1.6172071836659295E-016
   6.5066666666666658E-005     3.8365605604142846E-016
   6.5266666666666663E-005     6.2206131410091339E-016
   6.5466666666666654E-005     8.4962163875978709E-016
   6.5666666666666659E-005     1.0321424687560711E-015
   6.5866666666666664E-005     1.1310366358424444E-015
   6.6066666666666655E-005     1.1071449068948344E-015
   6.6266666666666660E-005     9.2578805898675546E-016
   6.6466666666666665E-005     5.6275646111758116E-016
   6.6666666666666656E-005     1.0730656744625805E-017
   6.6866666666666661E-005    -7.1458404641848070E-016
   6.7066666666666666E-005    -1.5695064173621852E-015
   6.7266666666666657E-005    -2.4796260608906306E-015
   6.7466666666666662E-005    -3.3402850154091741E-015
   6.7666666666666667E-005    -4.0212152252233797E-015
   6.7866666666666658E-005    -4.3759886224337390E-015
   6.8066666666666663E-005    -4.2564981080810485E-015
   6.8266666666666655E-005    -3.5320880030183851E-015
   6.8466666666666659E-005    -2.1122157791401844E-015
   6.8666666666666664E-005     2.9284761252998544E-017
   6.8866666666666656E-005     2.8310583366405453E-015
   6.9066666666666660E-005     6.1256181842163273E-015
   6.9266666666666665E-005     9.6291027316388819E-015
   6.9466666666666657E-005     1.2943291085459625E-014
   6.9666666666666661E-005     1.5573313987124124E-014
   6.9866666666666666E-005     1.6963450907630725E-014
   7.0066666666666658E-005     1.6551708191970410E-014
   7.0266666666666662E-005     1.3841649994152799E-014
   7.0466666666666654E-005     8.4871464646777903E-015
   7.0666666666666659E-005     3.8278954133638731E-016
   7.0866666666666664E-005    -1.0250187946147203E-014
   7.1066666666666655E-005    -2.2795050826844403E-014
   7.1266666666666660E-005    -3.6201727379725490E-014
   7.1466666666666665E-005    -4.8994035689369983E-014
   7.1666666666666656E-005    -5.9334136182868230E-014
   7.1866666666666661E-005    -6.5152602009201782E-014
   7.2066666666666666E-005    -6.4346206314624954E-014
   7.2266666666666657E-005    -5.5037666590006251E-014
   7.2466666666666662E-005    -3.5881799647415752E-014
   7.2666666666666667E-005    -6.3923738467786505E-015
   7.2866666666666658E-005     3.2746097229207488E-014
   7.3066666666666663E-005     7.9425317234607662E-014
   7.3266666666666654E-005     1.2996750214672864E-013
   7.3466666666666659E-005     1.7913551501533287E-013
   7.3666666666666664E-005     2.2034139107469236E-013
   7.3866666666666655E-005     2.4608255971142468E-013
   7.4066666666666660E-005     2.4861512046107925E-013
   7.4266666666666665E-005     2.2084666994465207E-013
   7.4466666666666656E-005     1.5739937565123485E-013
   7.4666666666666661E-005     5.5759650369191505E-014
   7.4866666666666666E-005    -8.2601880522191473E-014
   7.5066666666666657E-005    -2.5128510383609637E-013
   7.5266666666666662E-005    -4.3835193721392107E-013
   7.5466666666666653E-005    -6.2622021283764706E-013