  -3.3333333333333335E-005     0.0000000000000000     
  -3.3133333333333337E-005     0.0000000000000000     
  -3.2933333333333332E-005     0.0000000000000000     
  -3.2733333333333334E-005     0.0000000000000000     
  -3.2533333333333336E-005     0.0000000000000000     
  -3.2333333333333338E-005     0.0000000000000000     
  -3.2133333333333333E-005     0.0000000000000000     
  -3.1933333333333335E-005     0.0000000000000000     
  -3.1733333333333337E-005     0.0000000000000000     
  -3.1533333333333332E-005     0.0000000000000000     
  -3.1333333333333334E-005     0.0000000000000000     
  -3.1133333333333336E-005     0.0000000000000000     
  -3.0933333333333338E-005     0.0000000000000000     
  -3.0733333333333333E-005     0.0000000000000000     
  -3.0533333333333335E-005     0.0000000000000000     
  -3.0333333333333337E-005     0.0000000000000000     
  -3.0133333333333335E-005     0.0000000000000000     
  -2.9933333333333334E-005     0.0000000000000000     
  -2.9733333333333336E-005     0.0000000000000000     
  -2.9533333333333334E-005     0.0000000000000000     
  -2.9333333333333336E-005     0.0000000000000000     
  -2.9133333333333334E-005     0.0000000000000000     
  -2.8933333333333336E-005     0.0000000000000000     
  -2.8733333333333335E-005     0.0000000000000000     
  -2.8533333333333333E-005     0.0000000000000000     
  -2.8333333333333335E-005     0.0000000000000000     
  -2.8133333333333337E-005     0.0000000000000000     
  -2.7933333333333336E-005     0.0000000000000000     
  -2.7733333333333334E-005     0.0000000000000000     
  -2.7533333333333336E-005     0.0000000000000000     
  -2.7333333333333335E-005     0.0000000000000000     
  -2.7133333333333333E-005     0.0000000000000000     
  -2.6933333333333335E-005     0.0000000000000000     
  -2.6733333333333337E-005     0.0000000000000000     
  -2.6533333333333336E-005     0.0000000000000000     
  -2.6333333333333334E-005     0.0000000000000000     
  -2.6133333333333336E-005     0.0000000000000000     
  -2.5933333333333335E-005     0.0000000000000000     
  -2.5733333333333333E-005     0.0000000000000000     
  -2.5533333333333335E-005     0.0000000000000000     
  -2.5333333333333337E-005     0.0000000000000000     
  -2.5133333333333336E-005     0.0000000000000000     
  -2.4933333333333334E-005     0.0000000000000000     
  -2.4733333333333336E-005     0.0000000000000000     
  -2.4533333333333334E-005     0.0000000000000000     
  -2.4333333333333333E-005     0.0000000000000000     
  -2.4133333333333335E-005     0.0000000000000000     
  -2.3933333333333337E-005     0.0000000000000000     
  -2.3733333333333335E-005     0.0000000000000000     
  -2.3533333333333334E-005     0.0000000000000000     
  -2.3333333333333336E-005     0.0000000000000000     
  -2.3133333333333338E-005     0.0000000000000000     
  -2.2933333333333336E-005     0.0000000000000000     
  -2.2733333333333335E-005     0.0000000000000000     
  -2.2533333333333337E-005     0.0000000000000000     
  -2.2333333333333335E-005     0.0000000000000000     
  -2.2133333333333334E-005     0.0000000000000000     
  -2.1933333333333336E-005     0.0000000000000000     
  -2.1733333333333338E-005     0.0000000000000000     
  -2.1533333333333336E-005     0.0000000000000000     
  -2.1333333333333335E-005     0.0000000000000000     
  -2.1133333333333337E-005     0.0000000000000000     
  -2.0933333333333335E-005     0.0000000000000000     
  -2.0733333333333334E-005     0.0000000000000000     
  -2.0533333333333336E-005     0.0000000000000000     
  -2.0333333333333337E-005     0.0000000000000000     
  -2.0133333333333336E-005     0.0000000000000000     
  -1.9933333333333334E-005     0.0000000000000000     
  -1.9733333333333336E-005     0.0000000000000000     
  -1.9533333333333335E-005     0.0000000000000000     
  -1.9333333333333333E-005     0.0000000000000000     
  -1.9133333333333335E-005     0.0000000000000000     
  -1.8933333333333337E-005     0.0000000000000000     
  -1.8733333333333336E-005     0.0000000000000000     
  -1.8533333333333334E-005     0.0000000000000000     
  -1.8333333333333336E-005     0.0000000000000000     
  -1.8133333333333335E-005     0.0000000000000000     
  -1.7933333333333337E-005     0.0000000000000000     
  -1.7733333333333335E-005     0.0000000000000000     
  -1.7533333333333337E-005     0.0000000000000000     
  -1.7333333333333336E-005     0.0000000000000000     
  -1.7133333333333334E-005     0.0000000000000000     
  -1.6933333333333336E-005     0.0000000000000000     
  -1.6733333333333335E-005     0.0000000000000000     
  -1.6533333333333337E-005     0.0000000000000000     
  -1.6333333333333335E-005     0.0000000000000000     
  -1.6133333333333337E-005     0.0000000000000000     
  -1.5933333333333336E-005     0.0000000000000000     
  -1.5733333333333334E-005     0.0000000000000000     
  -1.5533333333333336E-005     0.0000000000000000     
  -1.5333333333333334E-005     0.0000000000000000     
  -1.5133333333333336E-005     0.0000000000000000     
  -1.4933333333333335E-005     0.0000000000000000     
  -1.4733333333333337E-005     0.0000000000000000     
  -1.4533333333333335E-005     0.0000000000000000     
  -1.4333333333333337E-005     0.0000000000000000     
  -1.4133333333333336E-005     0.0000000000000000     
  -1.3933333333333334E-005     0.0000000000000000     
  -1.3733333333333336E-005     0.0000000000000000     
  -1.3533333333333335E-005     0.0000000000000000     
  -1.3333333333333337E-005     0.0000000000000000     
  -1.3133333333333335E-005     0.0000000000000000     
  -1.2933333333333337E-005     0.0000000000000000     
  -1.2733333333333336E-005     0.0000000000000000     
  -1.2533333333333338E-005     0.0000000000000000     
  -1.2333333333333336E-005     0.0000000000000000     
  -1.2133333333333335E-005     0.0000000000000000     
  -1.1933333333333337E-005     0.0000000000000000     
  -1.1733333333333335E-005     0.0000000000000000     
  -1.1533333333333337E-005     0.0000000000000000     
  -1.1333333333333336E-005     0.0000000000000000     
  -1.1133333333333337E-005     0.0000000000000000     
  -1.0933333333333336E-005     0.0000000000000000     
  -1.0733333333333334E-005     0.0000000000000000     
  -1.0533333333333336E-005     0.0000000000000000     
  -1.0333333333333335E-005     0.0000000000000000     
  -1.0133333333333337E-005     0.0000000000000000     
  -9.9333333333333354E-006     0.0000000000000000     
  -9.7333333333333373E-006     0.0000000000000000     
  -9.5333333333333358E-006     0.0000000000000000     
  -9.3333333333333343E-006     0.0000000000000000     
  -9.1333333333333362E-006     0.0000000000000000     
  -8.9333333333333348E-006     0.0000000000000000     
  -8.7333333333333367E-006     0.0000000000000000     
  -8.5333333333333352E-006     0.0000000000000000     
  -8.3333333333333371E-006     0.0000000000000000     
  -8.1333333333333356E-006     0.0000000000000000     
  -7.9333333333333376E-006     0.0000000000000000     
  -7.7333333333333361E-006     0.0000000000000000     
  -7.5333333333333346E-006     0.0000000000000000     
  -7.3333333333333365E-006     0.0000000000000000     
  -7.1333333333333351E-006     0.0000000000000000     
  -6.9333333333333370E-006     0.0000000000000000     
  -6.7333333333333355E-006     0.0000000000000000     
  -6.5333333333333374E-006     0.0000000000000000     
  -6.3333333333333359E-006     0.0000000000000000     
  -6.1333333333333379E-006     0.0000000000000000     
  -5.9333333333333364E-006     0.0000000000000000     
  -5.7333333333333349E-006     0.0000000000000000     
  -5.5333333333333368E-006     0.0000000000000000     
  -5.3333333333333354E-006     0.0000000000000000     
  -5.1333333333333373E-006     0.0000000000000000     
  -4.9333333333333358E-006     0.0000000000000000     
  -4.7333333333333377E-006     0.0000000000000000     
  -4.5333333333333362E-006     0.0000000000000000     
  -4.3333333333333348E-006     0.0000000000000000     
  -4.1333333333333367E-006     0.0000000000000000     
  -3.9333333333333352E-006     0.0000000000000000     
  -3.7333333333333371E-006     0.0000000000000000     
  -3.5333333333333356E-006     0.0000000000000000     
  -3.3333333333333376E-006     0.0000000000000000     
  -3.1333333333333361E-006     0.0000000000000000     
  -2.9333333333333346E-006     0.0000000000000000     
  -2.7333333333333365E-006     0.0000000000000000     
  -2.5333333333333384E-006     0.0000000000000000     
  -2.3333333333333336E-006     0.0000000000000000     
  -2.1333333333333355E-006     0.0000000000000000     
  -1.9333333333333374E-006     0.0000000000000000     
  -1.7333333333333393E-006     0.0000000000000000     
  -1.5333333333333345E-006     0.0000000000000000     
  -1.3333333333333364E-006     0.0000000000000000     
  -1.1333333333333383E-006     0.0000000000000000     
  -9.3333333333333343E-007     0.0000000000000000     
  -7.3333333333333535E-007     0.0000000000000000     
  -5.3333333333333726E-007     0.0000000000000000     
  -3.3333333333333918E-007     0.0000000000000000     
  -1.3333333333333432E-007     0.0000000000000000     
   6.6666666666663770E-008    -1.3771102311425671E-038
   2.6666666666666185E-007    -4.5593756663655993E-038
   4.6666666666666672E-007    -9.3532317258054418E-038
   6.6666666666666480E-007    -1.4655262507619436E-037
   8.6666666666666289E-007    -1.6741849730860119E-037
   1.0666666666666610E-006    -1.1968356780184459E-037
   1.2666666666666658E-006     3.3698672098612922E-038
   1.4666666666666639E-006     3.1565169402786645E-037
   1.6666666666666620E-006     7.1574863789985388E-037
   1.8666666666666669E-006     1.1697409107978504E-036
   2.0666666666666649E-006     1.5500054232392890E-036
   2.2666666666666630E-006     1.6689487130884001E-036
   2.4666666666666611E-006     1.3036014600048200E-036
   2.6666666666666660E-006     2.4663597341861030E-037
   2.8666666666666641E-006    -1.6281712416674039E-036
   3.0666666666666622E-006    -4.2715648805438367E-036
   3.2666666666666602E-006    -7.3695173204718109E-036
   3.4666666666666651E-006    -1.0277921655062098E-035
   3.6666666666666632E-006    -1.2015198129686485E-035
   3.8666666666666613E-006    -1.1348476732368351E-035
   4.0666666666666661E-006    -7.0008602228362710E-036
   4.2666666666666642E-006     2.0093552749507447E-036
   4.4666666666666623E-006     1.5918311466263917E-035
   4.6666666666666604E-006     3.3722002798792138E-035
   4.8666666666666652E-006     5.2749993308632109E-035
   5.0666666666666633E-006     6.8466869353791982E-035
   5.2666666666666614E-006     7.4682559760816281E-035
   5.4666666666666663E-006     6.4338754746838589E-035
   5.6666666666666644E-006     3.0967597981681037E-035
   5.8666666666666624E-006    -2.9217531979287022E-035
   6.0666666666666605E-006    -1.1483567321188607E-034
   6.2666666666666654E-006    -2.1693153609587693E-034
   6.4666666666666635E-006    -3.1735032210790459E-034
   6.6666666666666616E-006    -3.8875076733181192E-034
   6.8666666666666664E-006    -3.9710816482417375E-034
   7.0666666666666645E-006    -3.0731908494481913E-034
   7.2666666666666626E-006    -9.1984608305159240E-035
   7.4666666666666607E-006     2.5737435035929561E-034
   7.6666666666666655E-006     7.1845512180712604E-034
   7.8666666666666636E-006     1.2285208091523847E-033
   8.0666666666666617E-006     1.6806419259240492E-033
   8.2666666666666598E-006     1.9297605866029780E-033
   8.4666666666666647E-006     1.8118054222987232E-033
   8.6666666666666627E-006     1.1771830219256407E-033
   8.8666666666666608E-006    -6.3213884713273394E-035
   9.0666666666666657E-006    -1.8855564888822905E-033
   9.2666666666666638E-006    -4.1048784356332457E-033
   9.4666666666666619E-006    -6.3457857647431598E-033
   9.6666666666666599E-006    -8.0487067983641454E-033
   9.8666666666666648E-006    -8.5268156156740944E-033
   1.0066666666666663E-005    -7.0825892972584160E-033
   1.0266666666666661E-005    -3.1815841937279722E-033
   1.0466666666666666E-005     3.3349674720690645E-033
   1.0666666666666664E-005     1.2035662579458776E-032
   1.0866666666666662E-005     2.1736786031344797E-032
   1.1066666666666660E-005     3.0457954944247971E-032
   1.1266666666666665E-005     3.5560220500086758E-032
   1.1466666666666663E-005     3.4113701233003007E-032
   1.1666666666666661E-005     2.3504119747287028E-032
   1.1866666666666666E-005     2.2311011348301638E-033
   1.2066666666666664E-005    -2.9218399090041746E-032
   1.2266666666666662E-005    -6.7608304856258439E-032
   1.2466666666666660E-005    -1.0654334025019721E-031
   1.2666666666666665E-005    -1.3666637040527302E-031
   1.2866666666666663E-005    -1.4667693907159316E-031
   1.3066666666666661E-005    -1.2527133975738491E-031
   1.3266666666666666E-005    -6.3917969646230458E-032
   1.3466666666666664E-005     3.9862080197507141E-032
   1.3666666666666662E-005     1.7930300812259241E-031
   1.3866666666666660E-005     3.3611109807101307E-031
   1.4066666666666665E-005     4.8002835256506776E-031
   1.4266666666666663E-005     5.7111595219729180E-031
   1.4466666666666661E-005     5.6532532596581911E-031
   1.4666666666666666E-005     4.2335551296277170E-031
   1.4866666666666664E-005     1.2199818749246376E-031
   1.5066666666666662E-005    -3.3375239812642710E-031
   1.5266666666666661E-005    -9.0042190188241149E-031
   1.5466666666666665E-005    -1.4908020905998491E-030
   1.5666666666666663E-005    -1.9769691567835551E-030
   1.5866666666666662E-005    -2.2041241301647036E-030
   1.6066666666666660E-005    -2.0162216403044051E-030
   1.6266666666666665E-005    -1.2919241510452450E-030
   1.6466666666666663E-005     1.3588691185618627E-032
   1.6666666666666661E-005     1.8285339367718889E-030
   1.6866666666666666E-005     3.9362171249714017E-030
   1.7066666666666664E-005     5.9696045563006387E-030
   1.7266666666666662E-005     7.4386930092916466E-030
   1.7466666666666660E-005     7.7966285940887834E-030
   1.7666666666666665E-005     6.5437148687676672E-030
   1.7866666666666663E-005     3.3592724605256706E-030
   1.8066666666666661E-005    -1.7588164012596478E-030
   1.8266666666666666E-005    -8.3762409724340447E-030
   1.8466666666666664E-005    -1.5561086634942455E-029
   1.8666666666666662E-005    -2.1913971186560343E-029
   1.8866666666666660E-005    -2.5715534211130927E-029
   1.9066666666666665E-005    -2.5199667856995730E-029
   1.9266666666666663E-005    -1.8935036035813848E-029
   1.9466666666666661E-005    -6.2664663446855489E-030
   1.9666666666666666E-005     1.2262941385292312E-029
   1.9866666666666664E-005     3.4611479855894022E-029
   2.0066666666666662E-005     5.7170760953711152E-029
   2.0266666666666660E-005     7.5026045431063063E-029
   2.0466666666666665E-005     8.2599740863241563E-029
   2.0666666666666663E-005     7.4665204400388886E-029
   2.0866666666666661E-005     4.7629911648538915E-029
   2.1066666666666659E-005     8.9213062300854754E-031
   2.1266666666666664E-005    -6.2007342804519741E-029
   2.1466666666666662E-005    -1.3276454645825527E-028
   2.1666666666666660E-005    -1.9853902628958967E-028
   2.1866666666666665E-005    -2.4326043163803590E-028
   2.2066666666666663E-005    -2.5008339957789226E-028
   2.2266666666666661E-005    -2.0482695885383310E-028
   2.2466666666666659E-005    -9.9962179867824781E-029
   2.2666666666666664E-005     6.1551132130411938E-029
   2.2866666666666662E-005     2.6347145343805152E-028
   2.3066666666666660E-005     4.7547613652749710E-028
   2.3266666666666665E-005     6.5517180405589129E-028
   2.3466666666666663E-005     7.5337396080697565E-028
   2.3666666666666661E-005     7.2254560018716916E-028
   2.3866666666666660E-005     5.2756031186802497E-028
   2.4066666666666664E-005     1.5718708352709752E-028
   2.4266666666666662E-005    -3.6596101913483351E-028
   2.4466666666666661E-005    -9.7963688105370325E-028
   2.4666666666666665E-005    -1.5828583619002016E-027
   2.4866666666666663E-005    -2.0453560898667106E-027
   2.5066666666666662E-005    -2.2261506448731235E-027
   2.5266666666666660E-005    -2.0000597583186783E-027
   2.5466666666666665E-005    -1.2888700670108482E-027
   2.5666666666666663E-005    -9.1944112212165383E-029
   2.5866666666666661E-005     1.4903969689790981E-027
   2.6066666666666666E-005     3.2477904209734597E-027
   2.6266666666666664E-005     4.8711536896095498E-027
   2.6466666666666662E-005     5.9879580939009313E-027
   2.6666666666666660E-005     6.2209636467347100E-027
   2.6866666666666665E-005     5.2648237850780116E-027
   2.7066666666666663E-005     2.9696318257795111E-027
   2.7266666666666661E-005    -5.8406637421261733E-028
   2.7466666666666666E-005    -5.0367967611504739E-027
   2.7666666666666664E-005    -9.7456754455058439E-027
   2.7866666666666662E-005    -1.3836994678357736E-026
   2.8066666666666667E-005    -1.6320629253064806E-026
   2.8266666666666658E-005    -1.6259454014311289E-026
   2.8466666666666663E-005    -1.2973701973390002E-026
   2.8666666666666668E-005    -6.2475950208197078E-027
   2.8866666666666659E-005     3.5035781843053839E-027
   2.9066666666666664E-005     1.5150563641347384E-026
   2.9266666666666669E-005     2.6890376225406926E-026
   2.9466666666666660E-005     3.6433349855381947E-026
   2.9666666666666665E-005     4.1336659641714964E-026
   2.9866666666666656E-005     3.9453759594517205E-026
   3.0066666666666661E-005     2.9437802222103968E-026
   3.0266666666666666E-005     1.1210514650047443E-026
   3.0466666666666657E-005    -1.3706965132976443E-026
   3.0666666666666662E-005    -4.2102132053691337E-026
   3.0866666666666667E-005    -6.9294934747149458E-026
   3.1066666666666658E-005    -8.9708682822006191E-026
   3.1266666666666663E-005    -9.7756592473264377E-026
   3.1466666666666668E-005    -8.8940905457072375E-026
   3.1666666666666659E-005    -6.0994299946356912E-026
   3.1866666666666664E-005    -1.4845148130022500E-026
   3.2066666666666656E-005     4.4827051754063106E-026
   3.2266666666666660E-005     1.0965048253436281E-025
   3.2466666666666665E-005     1.6836122121235538E-025
   3.2666666666666657E-005     2.0835160035616126E-025
   3.2866666666666661E-005     2.1782463653650778E-025
   3.3066666666666666E-005     1.8825988009395772E-025
   3.3266666666666658E-005     1.1676968103304627E-025
   3.3466666666666662E-005     7.8564598888344508E-027
   3.3666666666666667E-005    -1.2590216349541855E-025
   3.3866666666666659E-005    -2.6459817175932463E-025
   3.4066666666666664E-005    -3.8331375077842154E-025
   3.4266666666666668E-005    -4.5587901934172950E-025
   3.4466666666666660E-005    -4.5961284591756028E-025
   3.4666666666666665E-005    -3.8030720465339796E-025
   3.4866666666666656E-005    -2.1652235044150433E-025
   3.5066666666666661E-005     1.7779642904710622E-026
   3.5266666666666666E-005     2.9308716844618611E-025
   3.5466666666666657E-005     5.6715499907510678E-025
   3.5666666666666662E-005     7.9075303740599098E-025
   3.5866666666666667E-005     9.1572019118754468E-025
   3.6066666666666658E-005     9.0412127347524069E-025
   3.6266666666666663E-005     7.3687221055377885E-025
   3.6466666666666668E-005     4.2003431379603798E-025
   3.6666666666666659E-005    -1.2841768068479699E-026
   3.6866666666666664E-005    -5.0338456818078486E-025
   3.7066666666666669E-005    -9.7626733642313354E-025
   3.7266666666666660E-005    -1.3513854879976976E-024
   3.7466666666666665E-005    -1.5584013249741900E-024
   3.7666666666666656E-005    -1.5508980744741804E-024
   3.7866666666666661E-005    -1.3170498240598872E-024
   3.8066666666666666E-005    -8.8402376001576443E-025
   3.8266666666666657E-005    -3.1433632021967190E-025
   3.8466666666666662E-005     3.0600232523075465E-025
   3.8666666666666667E-005     8.8576872033811331E-025
   3.8866666666666658E-005     1.3495379757576699E-024
   3.9066666666666663E-005     1.6563574376267171E-024
   3.9266666666666668E-005     1.8106103129575022E-024
   3.9466666666666659E-005     1.8605103011629363E-024
   3.9666666666666664E-005     1.8819807284203365E-024
   3.9866666666666655E-005     1.9491628841221262E-024
   4.0066666666666660E-005     2.0968889215383390E-024
   4.0266666666666665E-005     2.2842885488151532E-024
   4.0466666666666656E-005     2.3712137236071354E-024
   4.0666666666666661E-005     2.1193649492346697E-024
   4.0866666666666666E-005     1.2271486715029588E-024
   4.1066666666666657E-005    -5.9883018030625264E-025
   4.1266666666666662E-005    -3.5415945838638060E-024
   4.1466666666666667E-005    -7.5571857089605196E-024
   4.1666666666666658E-005    -1.2269498391117978E-023
   4.1866666666666663E-005    -1.6908887982335901E-023
   4.2066666666666668E-005    -2.0327628129833755E-023
   4.2266666666666660E-005    -2.1118295526527723E-023
   4.2466666666666664E-005    -1.7845549866759122E-023
   4.2666666666666656E-005    -9.3785590428936310E-024
   4.2866666666666661E-005     4.7168746647723517E-024
   4.3066666666666665E-005     2.3795534822110414E-023
   4.3266666666666657E-005     4.5850321839105830E-023
   4.3466666666666662E-005     6.7429772829051273E-023
   4.3666666666666666E-005     8.3844857550545977E-023
   4.3866666666666658E-005     8.9720949904905217E-023
   4.4066666666666663E-005     7.9894683899306074E-023
   4.4266666666666667E-005     5.0581022868963990E-023
   4.4466666666666659E-005     6.5410531880844291E-025
   4.4666666666666664E-005    -6.7189902315878909E-023
   4.4866666666666655E-005    -1.4566950227985057E-022
   4.5066666666666660E-005    -2.2284315879244694E-022
   4.5266666666666665E-005    -2.8296233673176163E-022
   4.5466666666666656E-005    -3.0837728939632043E-022
   4.5666666666666661E-005    -2.8244582847634637E-022
   4.5866666666666666E-005    -1.9317850514637944E-022
   4.6066666666666657E-005    -3.7122850722058171E-023
   4.6266666666666662E-005     1.7721015551095502E-022
   4.6466666666666667E-005     4.2719627624717824E-022
   4.6666666666666658E-005     6.7604097205153184E-022
   4.6866666666666663E-005     8.7546788665598588E-022
   4.7066666666666668E-005     9.7146698291964889E-022
   4.7266666666666659E-005     9.1291719641961709E-022
   4.7466666666666664E-005     6.6229207310661587E-022
   4.7666666666666655E-005     2.0702004791600457E-022
   4.7866666666666660E-005    -4.3047006162561993E-022
   4.8066666666666665E-005    -1.1863181603268656E-021
   4.8266666666666656E-005    -1.9547019025225717E-021
   4.8466666666666661E-005    -2.5950473351314107E-021
   4.8666666666666666E-005    -2.9479028742834989E-021
   4.8866666666666657E-005    -2.8590520442679397E-021
   4.9066666666666662E-005    -2.2097873589896629E-021
   4.9266666666666667E-005    -9.4953346906733491E-022
   4.9466666666666658E-005     8.7451307465985533E-022
   4.9666666666666663E-005     3.0970304524710252E-021
   4.9866666666666655E-005     5.4298999036175561E-021
   5.0066666666666659E-005     7.4785730376281680E-021
   5.0266666666666664E-005     8.7825384549934868E-021
   5.0466666666666656E-005     8.8794567193621388E-021
   5.0666666666666660E-005     7.3881817452804422E-021
   5.0866666666666665E-005     4.1011570341732930E-021
   5.1066666666666657E-005    -9.2764095073854346E-022
   5.1266666666666661E-005    -7.3160926317790190E-021
   5.1466666666666666E-005    -1.4326467710211535E-020
   5.1666666666666658E-005    -2.0892948914497114E-020
   5.1866666666666662E-005    -2.5714770497589110E-020
   5.2066666666666667E-005    -2.7417046805912153E-020
   5.2266666666666659E-005    -2.4770254638262862E-020
   5.2466666666666664E-005    -1.6946681853921159E-020
   5.2666666666666655E-005    -3.7798761260692190E-021
   5.2866666666666660E-005     1.4016599713518062E-020
   5.3066666666666665E-005     3.4719814075010825E-020
   5.3266666666666656E-005     5.5604205224459710E-020
   5.3466666666666661E-005     7.3120775746338691E-020
   5.3666666666666666E-005     8.3265926239451366E-020
   5.3866666666666657E-005     8.2130071549096812E-020
   5.4066666666666662E-005     6.6583463967755544E-020
   5.4266666666666667E-005     3.5022726969092890E-020
   5.4466666666666658E-005    -1.1928931556753467E-020
   5.4666666666666663E-005    -7.0895827919632971E-020
   5.4866666666666668E-005    -1.3553157881285877E-019
   5.5066666666666659E-005    -1.9672740865590331E-019
   5.5266666666666664E-005    -2.4332815357833252E-019
   5.5466666666666655E-005    -2.6337709877145138E-019
   5.5666666666666660E-005    -2.4583200344313639E-019
   5.5866666666666665E-005    -1.8260397178080806E-019
   5.6066666666666656E-005    -7.0682053430076298E-020
   5.6266666666666661E-005     8.5969559609232401E-020
   5.6466666666666666E-005     2.7510026430407088E-019
   5.6666666666666657E-005     4.7580788512182036E-019
   5.6866666666666662E-005     6.5942724695393140E-019
   5.7066666666666667E-005     7.9186646274554896E-019
   5.7266666666666658E-005     8.3741325032061490E-019
   5.7466666666666663E-005     7.6381749195691178E-019
   5.7666666666666654E-005     5.4821265849981198E-019
   5.7866666666666659E-005     1.8320316073702616E-019
   5.8066666666666664E-005    -3.1775331560248490E-019
   5.8266666666666655E-005    -9.1665477485893387E-019
   5.8466666666666660E-005    -1.5499444586246850E-018
   5.8666666666666665E-005    -2.1310269482218815E-018
   5.8866666666666656E-005    -2.5568615955157115E-018
   5.9066666666666661E-005    -2.7187315356104478E-018
   5.9266666666666666E-005    -2.5167164524369817E-018
   5.9466666666666657E-005    -1.8767460444539460E-018
   5.9666666666666662E-005    -7.6846722927643720E-019
   5.9866666666666667E-005     7.7840590773383840E-019
   6.0066666666666659E-005     2.6619615097854741E-018
   6.0266666666666663E-005     4.7029825219651544E-018
   6.0466666666666655E-005     6.6493997146677574E-018
   6.0666666666666660E-005     8.1921701392373466E-018
   6.0866666666666664E-005     8.9933665272082460E-018
   6.1066666666666656E-005     8.7258000688269432E-018
   6.1266666666666661E-005     7.1217744383559647E-018
   6.1466666666666665E-005     4.0267259752561019E-018
   6.1666666666666657E-005    -5.4823602635211660E-019
   6.1866666666666662E-005    -6.3822472601830374E-018
   6.2066666666666666E-005    -1.3017233766267365E-017
   6.2266666666666658E-005    -1.9755142633658909E-017
   6.2466666666666663E-005    -2.5686791940550116E-017
   6.2666666666666668E-005    -2.9756945725145864E-017
   6.2866666666666659E-005    -3.0866704469836807E-017
   6.3066666666666664E-005    -2.8009741748086857E-017
   6.3266666666666655E-005    -2.0433609406964703E-017
   6.3466666666666660E-005    -7.8117398493568585E-018
   6.3666666666666665E-005     9.5934116153603378E-018
   6.3866666666666656E-005     3.0799831880395570E-017
   6.4066666666666661E-005     5.4033958858470829E-017
   6.4266666666666666E-005     7.6742700416121808E-017
   6.4466666666666657E-005     9.5711136384599908E-017
   6.4666666666666662E-005     1.0729985735712902E-016
   6.4866666666666667E-005     1.0780452355757007E-016
   6.5066666666666658E-005     9.3925339468881627E-017
   6.5266666666666663E-005     6.3316209115626482E-017
   6.5466666666666654E-005     1.5165267961473643E-017
   6.5666666666666659E-005    -4.9259478980259654E-017
   6.5866666666666664E-005    -1.2617967912094554E-016
   6.6066666666666655E-005    -2.0907930982942615E-016
   6.6266666666666660E-005    -2.8876729600438387E-016
   6.6466666666666665E-005    -3.5380455033737798E-016
   6.6666666666666656E-005    -3.9134380648004729E-016
   6.6866666666666661E-005    -3.8839110256547800E-016
   6.7066666666666666E-005    -3.3344770163689697E-016
   6.7266666666666657E-005    -2.1842941536659075E-016
   6.7466666666666662E-005    -4.0695942796294175E-017
   6.7666666666666667E-005     1.9503780643477520E-016
   6.7866666666666658E-005     4.7518691277776098E-016
   6.8066666666666663E-005     7.7648479068735134E-016
   6.8266666666666655E-005     1.0661772054888145E-015
   6.8466666666666659E-005     1.3034832265410002E-015
   6.8666666666666664E-005     1.4424974268114287E-015
   6.8866666666666656E-005     1.4365705255212535E-015
   6.9066666666666660E-005     1.2440350661709044E-015
   6.9266666666666665E-005     8.3492842292156276E-016
   6.9466666666666657E-005     1.9814959372475068E-016
   6.9666666666666661E-005    -6.5173139593557384E-016
   6.9866666666666666E-005    -1.6689631202046538E-015
   7.0066666666666658E-005    -2.7734558610625166E-015
   7.0266666666666662E-005    -3.8510314830434138E-015
   7.0466666666666654E-005    -4.7580009051619021E-015
   7.0666666666666659E-005    -5.3307103739866357E-015
   7.0866666666666664E-005    -5.4002462732420566E-015
   7.1066666666666655E-005    -4.8119336104959515E-015
   7.1266666666666660E-005    -3.4485426023318517E-015
   7.1466666666666665E-005    -1.2553852017849936E-015
   7.1666666666666656E-005     1.7352433424481844E-015
   7.1866666666666661E-005     5.3834449512167939E-015
   7.2066666666666666E-005     9.4284804369828591E-015
   7.2266666666666657E-005     1.3486546677609484E-014
   7.2466666666666662E-005     1.7062872246847646E-014
   7.2666666666666667E-005     1.9580589591134540E-014
   7.2866666666666658E-005     2.0427542917291798E-014
   7.3066666666666663E-005     1.9020324730370866E-014
   7.3266666666666654E-005     1.4882631463471706E-014
   7.3466666666666659E-005     7.7325248119689341E-015
   7.3666666666666664E-005    -2.4292862575605971E-015
   7.3866666666666655E-005    -1.5240330088965408E-014
   7.4066666666666660E-005    -2.9918233689085749E-014
   7.4266666666666665E-005    -4.5236113032504077E-014
   7.4466666666666656E-005    -5.9543576937538117E-014
   7.4666666666666661E-005    -7.0843328490825808E-014
   7.4866666666666666E-005    -7.6929605806290435E-014
   7.5066666666666657E-005    -7.5589389619563213E-014
   7.5266666666666662E-005    -6.4860036829220147E-014
   7.5466666666666653E-005    -4.3329153877032581E-014