  -3.3333333333333335E-005     0.0000000000000000     
  -3.3133333333333337E-005     0.0000000000000000     
  -3.2933333333333332E-005     0.0000000000000000     
  -3.2733333333333334E-005     0.0000000000000000     
  -3.2533333333333336E-005     0.0000000000000000     
  -3.2333333333333338E-005     0.0000000000000000     
  -3.2133333333333333E-005     0.0000000000000000     
  -3.1933333333333335E-005     0.0000000000000000     
  -3.1733333333333337E-005     0.0000000000000000     
  -3.1533333333333332E-005     0.0000000000000000     
  -3.1333333333333334E-005     0.0000000000000000     
  -3.1133333333333336E-005     0.0000000000000000     
  -3.0933333333333338E-005     0.0000000000000000     
  -3.0733333333333333E-005     0.0000000000000000     
  -3.0533333333333335E-005     0.0000000000000000     
  -3.0333333333333337E-005     0.0000000000000000     
  -3.0133333333333335E-005     0.0000000000000000     
  -2.9933333333333334E-005     0.0000000000000000     
  -2.9733333333333336E-005     0.0000000000000000     
  -2.9533333333333334E-005     0.0000000000000000     
  -2.9333333333333336E-005     0.0000000000000000     
  -2.9133333333333334E-005     0.0000000000000000     
  -2.8933333333333336E-005     0.0000000000000000     
  -2.8733333333333335E-005     0.0000000000000000     
  -2.8533333333333333E-005     0.0000000000000000     
  -2.8333333333333335E-005     0.0000000000000000     
  -2.8133333333333337E-005     0.0000000000000000     
  -2.7933333333333336E-005     0.0000000000000000     
  -2.7733333333333334E-005     0.0000000000000000     
  -2.7533333333333336E-005     0.0000000000000000     
  -2.7333333333333335E-005     0.0000000000000000     
  -2.7133333333333333E-005     0.0000000000000000     
  -2.6933333333333335E-005     0.0000000000000000     
  -2.6733333333333337E-005     0.0000000000000000     
  -2.6533333333333336E-005     0.0000000000000000     
  -2.6333333333333334E-005     0.0000000000000000     
  -2.6133333333333336E-005     0.0000000000000000     
  -2.5933333333333335E-005     0.0000000000000000     
  -2.5733333333333333E-005     0.0000000000000000     
  -2.5533333333333335E-005     0.0000000000000000     
  -2.5333333333333337E-005     0.0000000000000000     
  -2.5133333333333336E-005     0.0000000000000000     
  -2.4933333333333334E-005     0.0000000000000000     
  -2.4733333333333336E-005     0.0000000000000000     
  -2.4533333333333334E-005     0.0000000000000000     
  -2.4333333333333333E-005     0.0000000000000000     
  -2.4133333333333335E-005     0.0000000000000000     
  -2.3933333333333337E-005     0.0000000000000000     
  -2.3733333333333335E-005     0.0000000000000000     
  -2.3533333333333334E-005     0.0000000000000000     
  -2.3333333333333336E-005     0.0000000000000000     
  -2.3133333333333338E-005     0.0000000000000000     
  -2.2933333333333336E-005     0.0000000000000000     
  -2.2733333333333335E-005     0.0000000000000000     
  -2.2533333333333337E-005     0.0000000000000000     
  -2.2333333333333335E-005     0.0000000000000000     
  -2.2133333333333334E-005     0.0000000000000000     
  -2.1933333333333336E-005     0.0000000000000000     
  -2.1733333333333338E-005     0.0000000000000000     
  -2.1533333333333336E-005     0.0000000000000000     
  -2.1333333333333335E-005     0.0000000000000000     
  -2.1133333333333337E-005     0.0000000000000000     
  -2.0933333333333335E-005     0.0000000000000000     
  -2.0733333333333334E-005     0.0000000000000000     
  -2.0533333333333336E-005     0.0000000000000000     
  -2.0333333333333337E-005     0.0000000000000000     
  -2.0133333333333336E-005     0.0000000000000000     
  -1.9933333333333334E-005     0.0000000000000000     
  -1.9733333333333336E-005     0.0000000000000000     
  -1.9533333333333335E-005     0.0000000000000000     
  -1.9333333333333333E-005     0.0000000000000000     
  -1.9133333333333335E-005     0.0000000000000000     
  -1.8933333333333337E-005     0.0000000000000000     
  -1.8733333333333336E-005     0.0000000000000000     
  -1.8533333333333334E-005     0.0000000000000000     
  -1.8333333333333336E-005     0.0000000000000000     
  -1.8133333333333335E-005     0.0000000000000000     
  -1.7933333333333337E-005     0.0000000000000000     
  -1.7733333333333335E-005     0.0000000000000000     
  -1.7533333333333337E-005     0.0000000000000000     
  -1.7333333333333336E-005     0.0000000000000000     
  -1.7133333333333334E-005     0.0000000000000000     
  -1.6933333333333336E-005     0.0000000000000000     
  -1.6733333333333335E-005     0.0000000000000000     
  -1.6533333333333337E-005     0.0000000000000000     
  -1.6333333333333335E-005     0.0000000000000000     
  -1.6133333333333337E-005     0.0000000000000000     
  -1.5933333333333336E-005     0.0000000000000000     
  -1.5733333333333334E-005     0.0000000000000000     
  -1.5533333333333336E-005     0.0000000000000000     
  -1.5333333333333334E-005     0.0000000000000000     
  -1.5133333333333336E-005     0.0000000000000000     
  -1.4933333333333335E-005     0.0000000000000000     
  -1.4733333333333337E-005     0.0000000000000000     
  -1.4533333333333335E-005     0.0000000000000000     
  -1.4333333333333337E-005     0.0000000000000000     
  -1.4133333333333336E-005     0.0000000000000000     
  -1.3933333333333334E-005     0.0000000000000000     
  -1.3733333333333336E-005     0.0000000000000000     
  -1.3533333333333335E-005     0.0000000000000000     
  -1.3333333333333337E-005     0.0000000000000000     
  -1.3133333333333335E-005     0.0000000000000000     
  -1.2933333333333337E-005     0.0000000000000000     
  -1.2733333333333336E-005     0.0000000000000000     
  -1.2533333333333338E-005     0.0000000000000000     
  -1.2333333333333336E-005     0.0000000000000000     
  -1.2133333333333335E-005     0.0000000000000000     
  -1.1933333333333337E-005     0.0000000000000000     
  -1.1733333333333335E-005     0.0000000000000000     
  -1.1533333333333337E-005     0.0000000000000000     
  -1.1333333333333336E-005     0.0000000000000000     
  -1.1133333333333337E-005     0.0000000000000000     
  -1.0933333333333336E-005     0.0000000000000000     
  -1.0733333333333334E-005     0.0000000000000000     
  -1.0533333333333336E-005     0.0000000000000000     
  -1.0333333333333335E-005     0.0000000000000000     
  -1.0133333333333337E-005     0.0000000000000000     
  -9.9333333333333354E-006     0.0000000000000000     
  -9.7333333333333373E-006     0.0000000000000000     
  -9.5333333333333358E-006     0.0000000000000000     
  -9.3333333333333343E-006     0.0000000000000000     
  -9.1333333333333362E-006     0.0000000000000000     
  -8.9333333333333348E-006     0.0000000000000000     
  -8.7333333333333367E-006     0.0000000000000000     
  -8.5333333333333352E-006     0.0000000000000000     
  -8.3333333333333371E-006     0.0000000000000000     
  -8.1333333333333356E-006     0.0000000000000000     
  -7.9333333333333376E-006     0.0000000000000000     
  -7.7333333333333361E-006     0.0000000000000000     
  -7.5333333333333346E-006     0.0000000000000000     
  -7.3333333333333365E-006     0.0000000000000000     
  -7.1333333333333351E-006     0.0000000000000000     
  -6.9333333333333370E-006     0.0000000000000000     
  -6.7333333333333355E-006     0.0000000000000000     
  -6.5333333333333374E-006     0.0000000000000000     
  -6.3333333333333359E-006     0.0000000000000000     
  -6.1333333333333379E-006     0.0000000000000000     
  -5.9333333333333364E-006     0.0000000000000000     
  -5.7333333333333349E-006     0.0000000000000000     
  -5.5333333333333368E-006     0.0000000000000000     
  -5.3333333333333354E-006     0.0000000000000000     
  -5.1333333333333373E-006     0.0000000000000000     
  -4.9333333333333358E-006     0.0000000000000000     
  -4.7333333333333377E-006     0.0000000000000000     
  -4.5333333333333362E-006     0.0000000000000000     
  -4.3333333333333348E-006     0.0000000000000000     
  -4.1333333333333367E-006     0.0000000000000000     
  -3.9333333333333352E-006     0.0000000000000000     
  -3.7333333333333371E-006     0.0000000000000000     
  -3.5333333333333356E-006     0.0000000000000000     
  -3.3333333333333376E-006     0.0000000000000000     
  -3.1333333333333361E-006     0.0000000000000000     
  -2.9333333333333346E-006     0.0000000000000000     
  -2.7333333333333365E-006     0.0000000000000000     
  -2.5333333333333384E-006     0.0000000000000000     
  -2.3333333333333336E-006     0.0000000000000000     
  -2.1333333333333355E-006     0.0000000000000000     
  -1.9333333333333374E-006     0.0000000000000000     
  -1.7333333333333393E-006     0.0000000000000000     
  -1.5333333333333345E-006     0.0000000000000000     
  -1.3333333333333364E-006     0.0000000000000000     
  -1.1333333333333383E-006     0.0000000000000000     
  -9.3333333333333343E-007     1.3145977461296513E-038
  -7.3333333333333535E-007     2.6579218305182685E-038
  -5.3333333333333726E-007     2.6579218305182685E-038
  -3.3333333333333918E-007     2.6579218305182685E-038
  -1.3333333333333432E-007     0.0000000000000000     
   6.6666666666663770E-008    -5.9187618541418469E-038
   2.6666666666666185E-007    -1.2673341069276103E-037
   4.6666666666666672E-007    -2.0355638161809503E-037
   6.6666666666666480E-007    -2.6985705842675256E-037
   8.6666666666666289E-007    -2.6947630881841394E-037
   1.0666666666666610E-006    -1.8193371853185109E-037
   1.2666666666666658E-006     1.7593347061148937E-038
   1.4666666666666639E-006     3.3678251256352009E-037
   1.6666666666666620E-006     7.5502705627565393E-037
   1.8666666666666669E-006     1.2127659304309710E-036
   2.0666666666666649E-006     1.6104719228111888E-036
   2.2666666666666630E-006     1.8160017362410109E-036
   2.4666666666666611E-006     1.6805185506746795E-036
   2.6666666666666660E-006     1.0683205331438774E-036
   2.8666666666666641E-006    -1.0712294493896123E-037
   3.0666666666666622E-006    -1.8395968222040876E-036
   3.2666666666666602E-006    -3.9901145548204812E-036
   3.4666666666666651E-006    -6.2581069268122716E-036
   3.6666666666666632E-006    -8.1785213173960362E-036
   3.8666666666666613E-006    -9.1543667345004782E-036
   4.0666666666666661E-006    -8.5330587074972848E-036
   4.2666666666666642E-006    -5.7297683491051765E-036
   4.4666666666666623E-006    -3.8887982992476014E-037
   4.6666666666666604E-006     7.4324612260455353E-036
   4.8666666666666652E-006     1.7090244321750827E-035
   5.0666666666666633E-006     2.7236912963788371E-035
   5.2666666666666614E-006     3.5811225898075379E-035
   5.4666666666666663E-006     4.0186742461819144E-035
   5.6666666666666644E-006     3.7516034220019033E-035
   5.8666666666666624E-006     2.5283879035448176E-035
   6.0666666666666605E-006     2.0311511385271792E-036
   6.2666666666666654E-006    -3.1836315857587555E-035
   6.4666666666666635E-006    -7.3303529251915336E-035
   6.6666666666666616E-006    -1.1626842174632093E-034
   6.8666666666666664E-006    -1.5156055037222252E-034
   7.0666666666666645E-006    -1.6767644016875184E-034
   7.2666666666666626E-006    -1.5238054951741722E-034
   7.4666666666666607E-006    -9.5188909478229830E-035
   7.6666666666666655E-006     9.4459451522669141E-036
   7.8666666666666636E-006     1.5867244042737862E-034
   8.0666666666666617E-006     3.3817360760199639E-034
   8.2666666666666598E-006     5.2037031878040650E-034
   8.4666666666666647E-006     6.6485712526668955E-034
   8.6666666666666627E-006     7.2192733008136353E-034
   8.8666666666666608E-006     6.3970604609840434E-034
   9.0666666666666657E-006     3.7480729211464795E-034
   9.2666666666666638E-006    -9.4402527864347461E-035
   9.4666666666666619E-006    -7.5381008887127373E-034
   9.6666666666666599E-006    -1.5416266782988593E-033
   9.8666666666666648E-006    -2.3419728436447604E-033
   1.0066666666666663E-005    -2.9875554431423146E-033
   1.0266666666666661E-005    -3.2743975542490537E-033
   1.0466666666666666E-005    -2.9900884497973443E-033
   1.0666666666666664E-005    -1.9546463530228628E-033
   1.0866666666666662E-005    -7.0088483325794261E-035
   1.1066666666666660E-005     2.6284050010966502E-033
   1.1266666666666665E-005     5.9296045612284214E-033
   1.1466666666666663E-005     9.4230609978829778E-033
   1.1666666666666661E-005     1.2506775001329425E-032
   1.1866666666666666E-005     1.4434117008305586E-032
   1.2066666666666664E-005     1.4403264689700317E-032
   1.2266666666666662E-005     1.1685197020284773E-032
   1.2466666666666660E-005     5.7780726864898742E-033
   1.2666666666666665E-005    -3.4320159183309679E-033
   1.2866666666666663E-005    -1.5529680682007835E-032
   1.3066666666666661E-005    -2.9476229082215230E-032
   1.3266666666666666E-005    -4.3588705856880883E-032
   1.3466666666666664E-005    -5.5610945025537238E-032
   1.3666666666666662E-005    -6.2885315491448341E-032
   1.3866666666666660E-005    -6.2622286875508346E-032
   1.4066666666666665E-005    -5.2253844831552113E-032
   1.4266666666666663E-005    -2.9848822587859493E-032
   1.4466666666666661E-005     5.4368560638049347E-033
   1.4666666666666666E-005     5.2904774828319955E-032
   1.4866666666666664E-005     1.0988755114862557E-031
   1.5066666666666662E-005     1.7139575149819859E-031
   1.5266666666666661E-005     2.2990285599540476E-031
   1.5466666666666665E-005     2.7536474736515148E-031
   1.5666666666666663E-005     2.9560697167529442E-031
   1.5866666666666662E-005     2.7724342243663566E-031
   1.6066666666666660E-005     2.0729109368276127E-031
   1.6266666666666665E-005     7.5592127305193071E-032
   1.6466666666666663E-005    -1.2197945011251166E-031
   1.6666666666666661E-005    -3.7977417745547047E-031
   1.6866666666666666E-005    -6.7864208800938100E-031
   1.7066666666666664E-005    -9.8312319567745110E-031
   1.7266666666666662E-005    -1.2407442554850194E-030
   1.7466666666666660E-005    -1.3847356366528370E-030
   1.7666666666666665E-005    -1.3413105243447600E-030
   1.7866666666666663E-005    -1.0420558996593160E-030
   1.8066666666666661E-005    -4.4093926275898197E-031
   1.8266666666666666E-005     4.6601373275637219E-031
   1.8466666666666664E-005     1.6219465410273039E-030
   1.8666666666666662E-005     2.8963232885616661E-030
   1.8866666666666660E-005     4.0837930115928427E-030
   1.9066666666666665E-005     4.9201134197735016E-030
   1.9266666666666663E-005     5.1184010730848967E-030
   1.9466666666666661E-005     4.4251057897156795E-030
   1.9666666666666666E-005     2.6897238557549287E-030
   1.9866666666666664E-005    -6.3792902924774721E-032
   2.0066666666666662E-005    -3.5813329354299034E-030
   2.0266666666666660E-005    -7.3588790117408707E-030
   2.0466666666666665E-005    -1.0677512093490817E-029
   2.0666666666666663E-005    -1.2704754980749436E-029
   2.0866666666666661E-005    -1.2660610559938204E-029
   2.1066666666666659E-005    -1.0028498528673008E-029
   2.1266666666666664E-005    -4.7714353896487296E-030
   2.1466666666666662E-005     2.5029810616013774E-030
   2.1666666666666660E-005     1.0492935782445605E-029
   2.1866666666666665E-005     1.7324997722758114E-029
   2.2066666666666663E-005     2.0879698658175788E-029
   2.2266666666666661E-005     1.9305515744006576E-029
   2.2466666666666659E-005     1.1647372797665003E-029
   2.2666666666666664E-005    -1.5462234518964857E-030
   2.2866666666666662E-005    -1.7821500957788375E-029
   2.3066666666666660E-005    -3.2822077279705075E-029
   2.3266666666666665E-005    -4.0858531547802294E-029
   2.3466666666666663E-005    -3.6109459138841800E-029
   2.3666666666666661E-005    -1.4361644548967927E-029
   2.3866666666666660E-005     2.4997935723117781E-029
   2.4066666666666664E-005     7.7218680561561474E-029
   2.4266666666666662E-005     1.3126691925937545E-028
   2.4466666666666661E-005     1.7038042586987923E-028
   2.4666666666666665E-005     1.7456701238298820E-028
   2.4866666666666663E-005     1.2515614817589134E-028
   2.5066666666666662E-005     1.0969004599839363E-029
   2.5266666666666660E-005    -1.6497595348231268E-028
   2.5466666666666665E-005    -3.7991835381242934E-028
   2.5666666666666663E-005    -5.8906209204361199E-028
   2.5866666666666661E-005    -7.2859388688102006E-028
   2.6066666666666666E-005    -7.2545996552726454E-028
   2.6266666666666664E-005    -5.1407138742702843E-028
   2.6466666666666662E-005    -5.8252844692965120E-029
   2.6666666666666660E-005     6.2541401974392106E-028
   2.6866666666666665E-005     1.4487125264487696E-027
   2.7066666666666663E-005     2.2444849201647067E-027
   2.7266666666666661E-005     2.7778452182085024E-027
   2.7466666666666666E-005     2.7807562613194438E-027
   2.7666666666666664E-005     2.0105608913404497E-027
   2.7866666666666662E-005     3.2689974133700908E-028
   2.8066666666666667E-005    -2.2257394588299969E-027
   2.8266666666666658E-005    -5.3493362873396456E-027
   2.8466666666666663E-005    -8.4613721435791267E-027
   2.8666666666666668E-005    -1.0725354408128832E-026
   2.8866666666666659E-005    -1.1160315671232978E-026
   2.9066666666666664E-005    -8.8335288311968053E-027
   2.9266666666666669E-005    -3.1210985121857896E-027
   2.9466666666666660E-005     6.0022592792959732E-027
   2.9666666666666665E-005     1.7705657920710997E-026
   2.9866666666666656E-005     3.0154211183561087E-026
   3.0066666666666661E-005     4.0551444136692688E-026
   3.0266666666666666E-005     4.5436668670475931E-026
   3.0466666666666657E-005     4.1264272409197203E-026
   3.0666666666666662E-005     2.5233361568038547E-026
   3.0866666666666667E-005    -3.7367655449259127E-027
   3.1066666666666658E-005    -4.4064371170134117E-026
   3.1266666666666663E-005    -9.0834603037910346E-026
   3.1466666666666668E-005    -1.3566244365287867E-025
   3.1666666666666659E-005    -1.6732161347283888E-025
   3.1866666666666664E-005    -1.7327614512662503E-025
   3.2066666666666656E-005    -1.4208914553629453E-025
   3.2266666666666660E-005    -6.6469900586036574E-026
   3.2466666666666665E-005     5.3513636752735032E-026
   3.2666666666666657E-005     2.0773542603347379E-025
   3.2866666666666661E-005     3.7462486698976799E-025
   3.3066666666666666E-005     5.2187236165935107E-025
   3.3266666666666658E-005     6.0980121404180729E-025
   3.3466666666666662E-005     5.9757426444133422E-025
   3.3666666666666667E-005     4.5182230213663045E-025
   3.3866666666666659E-005     1.5660096911898204E-025
   3.4066666666666664E-005    -2.7708268444535236E-025
   3.4266666666666668E-005    -8.0442222195643437E-025
   3.4466666666666660E-005    -1.3450428491044943E-024
   3.4666666666666665E-005    -1.7883815931549583E-024
   3.4866666666666656E-005    -2.0073956100694097E-024
   3.5066666666666661E-005    -1.8803379255852138E-024
   3.5266666666666666E-005    -1.3185070473670568E-024
   3.5466666666666657E-005    -2.9591183282874967E-025
   3.5666666666666662E-005     1.1249017471717083E-024
   3.5866666666666667E-005     2.7775981799449079E-024
   3.6066666666666658E-005     4.3939485367633414E-024
   3.6266666666666663E-005     5.6278240224203460E-024
   3.6466666666666668E-005     6.1030653861616924E-024
   3.6666666666666659E-005     5.4824902056992160E-024
   3.6866666666666664E-005     3.5500085742788933E-024
   3.7066666666666669E-005     2.9263884893298769E-025
   3.7266666666666660E-005    -4.0347139023001761E-024
   3.7466666666666665E-005    -8.8803555159231114E-024
   3.7666666666666656E-005    -1.3419439076459467E-023
   3.7866666666666661E-005    -1.6640804647749213E-023
   3.8066666666666666E-005    -1.7497692184271054E-023
   3.8266666666666657E-005    -1.5110037416107755E-023
   3.8466666666666662E-005    -8.9919083365304147E-024
   3.8666666666666667E-005     7.3511581174830427E-025
   3.8866666666666658E-005     1.3190058835604733E-023
   3.9066666666666663E-005     2.6690496572090483E-023
   3.9266666666666668E-005     3.8859944523460185E-023
   3.9466666666666659E-005     4.6905038335717185E-023
   3.9666666666666664E-005     4.8054260368774018E-023
   3.9866666666666655E-005     4.0115009601892332E-023
   4.0066666666666660E-005     2.2070322843662839E-023
   4.0266666666666665E-005    -5.3930696666487934E-024
   4.0466666666666656E-005    -3.9549147052802816E-023
   4.0666666666666661E-005    -7.5608436569780294E-023
   4.0866666666666666E-005    -1.0709407779679825E-022
   4.1066666666666657E-005    -1.2665125230177342E-022
   4.1266666666666662E-005    -1.2724616702028042E-022
   4.1466666666666667E-005    -1.0362177083839227E-022
   4.1666666666666658E-005    -5.3792753293157367E-023
   4.1866666666666663E-005     1.9703066440786744E-023
   4.2066666666666668E-005     1.0910490317686834E-022
   4.2266666666666660E-005     2.0156034790185719E-022
   4.2466666666666664E-005     2.8027687750554654E-022
   4.2666666666666656E-005     3.2673187385027876E-022
   4.2866666666666661E-005     3.2378226612767222E-022
   4.3066666666666665E-005     2.5930090195265155E-022
   4.3266666666666657E-005     1.2976903254759860E-022
   4.3466666666666662E-005    -5.6879509217302010E-023
   4.3666666666666666E-005    -2.7989807280974665E-022
   4.3866666666666658E-005    -5.0648272945589719E-022
   4.4066666666666663E-005    -6.9502270723602812E-022
   4.4266666666666667E-005    -8.0083684874777441E-022
   4.4466666666666659E-005    -7.8390615191685277E-022
   4.4666666666666664E-005    -6.1760670003157336E-022
   4.4866666666666655E-005    -2.9701355241910726E-022
   4.5066666666666660E-005     1.5492106102789085E-022
   4.5266666666666665E-005     6.8501212545764589E-022
   4.5466666666666656E-005     1.2126832296874470E-021
   4.5666666666666661E-005     1.6387108305916457E-021
   4.5866666666666666E-005     1.8596145022734035E-021
   4.6066666666666657E-005     1.7862908782532946E-021
   4.6266666666666662E-005     1.3643354656942682E-021
   4.6466666666666667E-005     5.9256711894015493E-022
   4.6666666666666658E-005    -4.6422381679466761E-022
   4.6866666666666663E-005    -1.6721188501140403E-021
   4.7066666666666668E-005    -2.8373926753574081E-021
   4.7266666666666659E-005    -3.7294908101245095E-021
   4.7466666666666664E-005    -4.1165039002549226E-021
   4.7666666666666655E-005    -3.8092987950548882E-021
   4.7866666666666660E-005    -2.7079001354016458E-021
   4.8066666666666665E-005    -8.4173977893268873E-022
   4.8266666666666656E-005     1.6054183255493243E-021
   4.8466666666666661E-005     4.2943380384310202E-021
   4.8666666666666666E-005     6.7588742059187494E-021
   4.8866666666666657E-005     8.4658841845440978E-021
   4.9066666666666662E-005     8.9025240724598578E-021
   4.9266666666666667E-005     7.6807476115634920E-021
   4.9466666666666658E-005     4.6431101811021947E-021
   4.9666666666666663E-005    -5.0154791855542215E-023
   4.9866666666666655E-005    -5.8740591379512359E-021
   5.0066666666666659E-005    -1.1950622429613110E-020
   5.0266666666666664E-005    -1.7131674658687534E-020
   5.0466666666666656E-005    -2.0154391334173766E-020
   5.0666666666666660E-005    -1.9857861624857711E-020
   5.0866666666666665E-005    -1.5434582769477153E-020
   5.1066666666666657E-005    -6.6777676928295045E-021
   5.1266666666666661E-005     5.8234217904136392E-021
   5.1466666666666666E-005     2.0590677408507204E-020
   5.1666666666666658E-005     3.5308517870729961E-020
   5.1866666666666662E-005     4.7048159160940899E-020
   5.2066666666666667E-005     5.2664773681312777E-020
   5.2266666666666659E-005     4.9337904956412784E-020
   5.2466666666666664E-005     3.5191106691361448E-020
   5.2666666666666655E-005     9.8966885399977602E-021
   5.2866666666666660E-005    -2.4849022588975797E-020
   5.3066666666666665E-005    -6.5099049584437922E-020
   5.3266666666666656E-005    -1.0478142388453553E-019
   5.3466666666666661E-005    -1.3624299291374559E-019
   5.3666666666666666E-005    -1.5121914960280644E-019
   5.3866666666666657E-005    -1.4216374494324702E-019
   5.4066666666666662E-005    -1.0379481713360998E-019
   5.4266666666666667E-005    -3.4639364298091508E-020
   5.4466666666666658E-005     6.1691130084204804E-020
   5.4666666666666663E-005     1.7578020994103721E-019
   5.4866666666666668E-005     2.9249998263972967E-019
   5.5066666666666659E-005     3.9210131718512258E-019
   5.5266666666666664E-005     4.5235933100868512E-019
   5.5466666666666655E-005     4.5167199561844184E-019
   5.5666666666666660E-005     3.7283028365932156E-019
   5.5866666666666665E-005     2.0700514069157175E-019
   5.6066666666666656E-005    -4.2640333396496024E-020
   5.6266666666666661E-005    -3.5837690511739422E-019
   5.6466666666666666E-005    -7.0702068615960667E-019
   5.6666666666666657E-005    -1.0412566094429763E-018
   5.6866666666666662E-005    -1.3034752417665472E-018
   5.7066666666666667E-005    -1.4321084444634434E-018
   5.7266666666666658E-005    -1.3700734140395697E-018
   5.7466666666666663E-005    -1.0745430810751462E-018
   5.7666666666666654E-005    -5.2690732935380164E-019
   5.7866666666666659E-005     2.5846801448049644E-019
   5.8066666666666664E-005     1.2281898119053397E-018
   5.8266666666666655E-005     2.2879253260400209E-018
   5.8466666666666660E-005     3.3057812027490253E-018
   5.8666666666666665E-005     4.1216486728593183E-018
   5.8866666666666656E-005     4.5625425567949825E-018
   5.9066666666666661E-005     4.4632085049850208E-018
   5.9266666666666666E-005     3.6904716795793146E-018
   5.9466666666666657E-005     2.1690520273906379E-018
   5.9666666666666662E-005    -9.4038312281426516E-020
   5.9866666666666667E-005    -2.9897996563198407E-018
   6.0066666666666659E-005    -6.2956526169870049E-018
   6.0266666666666663E-005    -9.6751296152550639E-018
   6.0466666666666655E-005    -1.2691474324612344E-017
   6.0666666666666660E-005    -1.4836827627453337E-017
   6.0866666666666664E-005    -1.5577423936567990E-017
   6.1066666666666656E-005    -1.4413615556291607E-017
   6.1266666666666661E-005    -1.0951730689497952E-017
   6.1466666666666665E-005    -4.9826928189193481E-018
   6.1666666666666657E-005     3.4397048458486575E-018
   6.1866666666666662E-005     1.3930009374246154E-017
   6.2066666666666666E-005     2.5722597280545086E-017
   6.2266666666666658E-005     3.7655276495385999E-017
   6.2466666666666663E-005     4.8196925778765887E-017
   6.2666666666666668E-005     5.5529686694423915E-017
   6.2866666666666659E-005     5.7693161042944108E-017
   6.3066666666666664E-005     5.2792780966779912E-017
   6.3266666666666655E-005     3.9266971744496569E-017
   6.3466666666666660E-005     1.6198155157478807E-017
   6.3666666666666665E-005    -1.6358633159397770E-017
   6.3866666666666656E-005    -5.7067362513600790E-017
   6.4066666666666661E-005    -1.0307154167632946E-016
   6.4266666666666666E-005    -1.4987997862247608E-016
   6.4466666666666657E-005    -1.9143642086639692E-016
   6.4666666666666662E-005    -2.2042640141886117E-016
   6.4866666666666667E-005    -2.2885962026040260E-016
   6.5066666666666658E-005    -2.0893990673515381E-016
   6.5266666666666663E-005    -1.5419816582246831E-016
   6.5466666666666654E-005    -6.0817031787307769E-017
   6.5666666666666659E-005     7.0975286165491779E-017
   6.5866666666666664E-005     2.3561568739660090E-016
   6.6066666666666655E-005     4.2123811381771371E-016
   6.6266666666666660E-005     6.0926868137765010E-016
   6.6466666666666665E-005     7.7482412965470008E-016
   6.6666666666666656E-005     8.8811764508615974E-016
   6.6866666666666661E-005     9.1699659814808467E-016
   6.7066666666666666E-005     8.3061686640136076E-016
   6.7266666666666657E-005     6.0409876284452427E-016
   6.7466666666666662E-005     2.2382202415550565E-016
   6.7666666666666667E-005    -3.0717718653604166E-016
   6.7866666666666658E-005    -9.6442398456810267E-016
   6.8066666666666663E-005    -1.6986864592358729E-015
   6.8266666666666655E-005    -2.4350234234705873E-015
   6.8466666666666659E-005    -3.0750427889653575E-015
   6.8666666666666664E-005    -3.5030288436969318E-015
   6.8866666666666656E-005    -3.5962554074541082E-015
   6.9066666666666660E-005    -3.2393343582059857E-015
   6.9266666666666665E-005    -2.3418491639979038E-015
   6.9466666666666657E-005    -8.5787751007799715E-016
   6.9666666666666661E-005     1.1946578099063070E-015
   6.9866666666666666E-005     3.7174222000094150E-015
   7.0066666666666658E-005     6.5208772152066004E-015
   7.0266666666666662E-005     9.3223285739670557E-015
   7.0466666666666654E-005     1.1755580639786697E-014
   7.0666666666666659E-005     1.3394226015589396E-014
   7.0866666666666664E-005     1.3789382979109525E-014
   7.1066666666666655E-005     1.2521079042571246E-014
   7.1266666666666660E-005     9.2604883925539137E-015
   7.1466666666666665E-005     3.8381260890590473E-015
   7.1666666666666656E-005    -3.6890122914420322E-015
   7.1866666666666661E-005    -1.2980119230973294E-014
   7.2066666666666666E-005    -2.3372932278845071E-014
   7.2266666666666657E-005    -3.3875846057332751E-014
   7.2466666666666662E-005    -4.3198941196117072E-014
   7.2666666666666667E-005    -4.9830592533132642E-014
   7.2866666666666658E-005    -5.2162697853621806E-014
   7.3066666666666663E-005    -4.8662303705907309E-014
   7.3266666666666654E-005    -3.8081317206605306E-014
   7.3466666666666659E-005    -1.9689143639588756E-014
   7.3666666666666664E-005     6.4936823754020538E-015
   7.3866666666666655E-005     3.9488615014623279E-014
   7.4066666666666660E-005     7.7210949493786846E-014
   7.4266666666666665E-005     1.1641395855112313E-013
   7.4466666666666656E-005     1.5275653734558164E-013
   7.4666666666666661E-005     1.8101985839111268E-013
   7.4866666666666666E-005     1.9548733020801484E-013
   7.5066666666666657E-005     1.9048726083905482E-013
   7.5266666666666662E-005     1.6107852085587432E-013
   7.5466666666666653E-005     1.0383759282105165E-013