  -3.3333333333333335E-005     0.0000000000000000     
  -3.3133333333333337E-005     0.0000000000000000     
  -3.2933333333333332E-005     0.0000000000000000     
  -3.2733333333333334E-005     0.0000000000000000     
  -3.2533333333333336E-005     0.0000000000000000     
  -3.2333333333333338E-005     0.0000000000000000     
  -3.2133333333333333E-005     0.0000000000000000     
  -3.1933333333333335E-005     0.0000000000000000     
  -3.1733333333333337E-005     0.0000000000000000     
  -3.1533333333333332E-005     0.0000000000000000     
  -3.1333333333333334E-005     0.0000000000000000     
  -3.1133333333333336E-005     0.0000000000000000     
  -3.0933333333333338E-005     0.0000000000000000     
  -3.0733333333333333E-005     0.0000000000000000     
  -3.0533333333333335E-005     0.0000000000000000     
  -3.0333333333333337E-005     0.0000000000000000     
  -3.0133333333333335E-005     0.0000000000000000     
  -2.9933333333333334E-005     0.0000000000000000     
  -2.9733333333333336E-005     0.0000000000000000     
  -2.9533333333333334E-005     0.0000000000000000     
  -2.9333333333333336E-005     0.0000000000000000     
  -2.9133333333333334E-005     0.0000000000000000     
  -2.8933333333333336E-005     0.0000000000000000     
  -2.8733333333333335E-005     0.0000000000000000     
  -2.8533333333333333E-005     0.0000000000000000     
  -2.8333333333333335E-005     0.0000000000000000     
  -2.8133333333333337E-005     0.0000000000000000     
  -2.7933333333333336E-005     0.0000000000000000     
  -2.7733333333333334E-005     0.0000000000000000     
  -2.7533333333333336E-005     0.0000000000000000     
  -2.7333333333333335E-005     0.0000000000000000     
  -2.7133333333333333E-005     0.0000000000000000     
  -2.6933333333333335E-005     0.0000000000000000     
  -2.6733333333333337E-005     0.0000000000000000     
  -2.6533333333333336E-005     0.0000000000000000     
  -2.6333333333333334E-005     0.0000000000000000     
  -2.6133333333333336E-005     0.0000000000000000     
  -2.5933333333333335E-005     0.0000000000000000     
  -2.5733333333333333E-005     0.0000000000000000     
  -2.5533333333333335E-005     0.0000000000000000     
  -2.5333333333333337E-005     0.0000000000000000     
  -2.5133333333333336E-005     0.0000000000000000     
  -2.4933333333333334E-005     0.0000000000000000     
  -2.4733333333333336E-005     0.0000000000000000     
  -2.4533333333333334E-005     0.0000000000000000     
  -2.4333333333333333E-005     0.0000000000000000     
  -2.4133333333333335E-005     0.0000000000000000     
  -2.3933333333333337E-005     0.0000000000000000     
  -2.3733333333333335E-005     0.0000000000000000     
  -2.3533333333333334E-005     0.0000000000000000     
  -2.3333333333333336E-005     0.0000000000000000     
  -2.3133333333333338E-005     0.0000000000000000     
  -2.2933333333333336E-005     0.0000000000000000     
  -2.2733333333333335E-005     0.0000000000000000     
  -2.2533333333333337E-005     0.0000000000000000     
  -2.2333333333333335E-005     0.0000000000000000     
  -2.2133333333333334E-005     0.0000000000000000     
  -2.1933333333333336E-005     0.0000000000000000     
  -2.1733333333333338E-005     0.0000000000000000     
  -2.1533333333333336E-005     0.0000000000000000     
  -2.1333333333333335E-005     0.0000000000000000     
  -2.1133333333333337E-005     0.0000000000000000     
  -2.0933333333333335E-005     0.0000000000000000     
  -2.0733333333333334E-005     0.0000000000000000     
  -2.0533333333333336E-005     0.0000000000000000     
  -2.0333333333333337E-005     0.0000000000000000     
  -2.0133333333333336E-005     0.0000000000000000     
  -1.9933333333333334E-005     0.0000000000000000     
  -1.9733333333333336E-005     0.0000000000000000     
  -1.9533333333333335E-005     0.0000000000000000     
  -1.9333333333333333E-005     0.0000000000000000     
  -1.9133333333333335E-005     0.0000000000000000     
  -1.8933333333333337E-005     0.0000000000000000     
  -1.8733333333333336E-005     0.0000000000000000     
  -1.8533333333333334E-005     0.0000000000000000     
  -1.8333333333333336E-005     0.0000000000000000     
  -1.8133333333333335E-005     0.0000000000000000     
  -1.7933333333333337E-005     0.0000000000000000     
  -1.7733333333333335E-005     0.0000000000000000     
  -1.7533333333333337E-005     0.0000000000000000     
  -1.7333333333333336E-005     0.0000000000000000     
  -1.7133333333333334E-005     0.0000000000000000     
  -1.6933333333333336E-005     0.0000000000000000     
  -1.6733333333333335E-005     0.0000000000000000     
  -1.6533333333333337E-005     0.0000000000000000     
  -1.6333333333333335E-005     0.0000000000000000     
  -1.6133333333333337E-005     0.0000000000000000     
  -1.5933333333333336E-005     0.0000000000000000     
  -1.5733333333333334E-005     0.0000000000000000     
  -1.5533333333333336E-005     0.0000000000000000     
  -1.5333333333333334E-005     0.0000000000000000     
  -1.5133333333333336E-005     0.0000000000000000     
  -1.4933333333333335E-005     0.0000000000000000     
  -1.4733333333333337E-005     0.0000000000000000     
  -1.4533333333333335E-005     0.0000000000000000     
  -1.4333333333333337E-005     0.0000000000000000     
  -1.4133333333333336E-005     0.0000000000000000     
  -1.3933333333333334E-005     0.0000000000000000     
  -1.3733333333333336E-005     0.0000000000000000     
  -1.3533333333333335E-005     0.0000000000000000     
  -1.3333333333333337E-005     0.0000000000000000     
  -1.3133333333333335E-005     0.0000000000000000     
  -1.2933333333333337E-005     0.0000000000000000     
  -1.2733333333333336E-005     0.0000000000000000     
  -1.2533333333333338E-005     0.0000000000000000     
  -1.2333333333333336E-005     0.0000000000000000     
  -1.2133333333333335E-005     0.0000000000000000     
  -1.1933333333333337E-005     0.0000000000000000     
  -1.1733333333333335E-005     0.0000000000000000     
  -1.1533333333333337E-005     0.0000000000000000     
  -1.1333333333333336E-005     0.0000000000000000     
  -1.1133333333333337E-005     0.0000000000000000     
  -1.0933333333333336E-005     0.0000000000000000     
  -1.0733333333333334E-005     0.0000000000000000     
  -1.0533333333333336E-005     0.0000000000000000     
  -1.0333333333333335E-005     0.0000000000000000     
  -1.0133333333333337E-005     0.0000000000000000     
  -9.9333333333333354E-006     0.0000000000000000     
  -9.7333333333333373E-006     0.0000000000000000     
  -9.5333333333333358E-006     0.0000000000000000     
  -9.3333333333333343E-006     0.0000000000000000     
  -9.1333333333333362E-006     0.0000000000000000     
  -8.9333333333333348E-006     0.0000000000000000     
  -8.7333333333333367E-006     0.0000000000000000     
  -8.5333333333333352E-006     0.0000000000000000     
  -8.3333333333333371E-006     0.0000000000000000     
  -8.1333333333333356E-006     0.0000000000000000     
  -7.9333333333333376E-006     0.0000000000000000     
  -7.7333333333333361E-006     0.0000000000000000     
  -7.5333333333333346E-006     0.0000000000000000     
  -7.3333333333333365E-006     0.0000000000000000     
  -7.1333333333333351E-006     0.0000000000000000     
  -6.9333333333333370E-006     0.0000000000000000     
  -6.7333333333333355E-006     0.0000000000000000     
  -6.5333333333333374E-006     0.0000000000000000     
  -6.3333333333333359E-006     0.0000000000000000     
  -6.1333333333333379E-006     0.0000000000000000     
  -5.9333333333333364E-006     0.0000000000000000     
  -5.7333333333333349E-006     0.0000000000000000     
  -5.5333333333333368E-006     0.0000000000000000     
  -5.3333333333333354E-006     0.0000000000000000     
  -5.1333333333333373E-006     0.0000000000000000     
  -4.9333333333333358E-006     0.0000000000000000     
  -4.7333333333333377E-006     0.0000000000000000     
  -4.5333333333333362E-006     0.0000000000000000     
  -4.3333333333333348E-006     0.0000000000000000     
  -4.1333333333333367E-006     0.0000000000000000     
  -3.9333333333333352E-006     0.0000000000000000     
  -3.7333333333333371E-006     0.0000000000000000     
  -3.5333333333333356E-006     0.0000000000000000     
  -3.3333333333333376E-006     0.0000000000000000     
  -3.1333333333333361E-006     0.0000000000000000     
  -2.9333333333333346E-006     0.0000000000000000     
  -2.7333333333333365E-006     0.0000000000000000     
  -2.5333333333333384E-006     0.0000000000000000     
  -2.3333333333333336E-006     0.0000000000000000     
  -2.1333333333333355E-006     0.0000000000000000     
  -1.9333333333333374E-006     0.0000000000000000     
  -1.7333333333333393E-006     0.0000000000000000     
  -1.5333333333333345E-006     0.0000000000000000     
  -1.3333333333333364E-006     0.0000000000000000     
  -1.1333333333333383E-006     0.0000000000000000     
  -9.3333333333333343E-007     0.0000000000000000     
  -7.3333333333333535E-007     0.0000000000000000     
  -5.3333333333333726E-007     0.0000000000000000     
  -3.3333333333333918E-007     0.0000000000000000     
  -1.3333333333333432E-007     0.0000000000000000     
   6.6666666666663770E-008     0.0000000000000000     
   2.6666666666666185E-007     1.8754067802521541E-038
   4.6666666666666672E-007     4.7265343180973639E-038
   6.6666666666666480E-007     7.8456324415351013E-038
   8.6666666666666289E-007     9.9050367166454255E-038
   1.0666666666666610E-006     8.2443904166984571E-038
   1.2666666666666658E-006     1.6271502219751337E-038
   1.4666666666666639E-006    -9.7715288462359571E-038
   1.6666666666666620E-006    -2.4807805527344082E-037
   1.8666666666666669E-006    -4.0407761802478880E-037
   2.0666666666666649E-006    -5.3851617482232312E-037
   2.2666666666666630E-006    -5.9666920910233672E-037
   2.4666666666666611E-006    -5.3345742010378424E-037
   2.6666666666666660E-006    -3.0205409909099501E-037
   2.8666666666666641E-006     1.0763330905005604E-037
   3.0666666666666622E-006     6.7966571812132471E-037
   3.2666666666666602E-006     1.3600136555974090E-036
   3.4666666666666651E-006     2.0459171024924415E-036
   3.6666666666666632E-006     2.6097009531248594E-036
   3.8666666666666613E-006     2.8685511372155843E-036
   4.0666666666666661E-006     2.6202774606765237E-036
   4.2666666666666642E-006     1.7099591812076564E-036
   4.4666666666666623E-006     0.0000000000000000     
   4.6666666666666604E-006    -2.5174351574448311E-036
   4.8666666666666652E-006    -5.6998332059493332E-036
   5.0666666666666633E-006    -9.1908914332380643E-036
   5.2666666666666614E-006    -1.2398618500794235E-035
   5.4666666666666663E-006    -1.4509233530963778E-035
   5.6666666666666644E-006    -1.4549390036588488E-035
   5.8666666666666624E-006    -1.1517736008970852E-035
   6.0666666666666605E-006    -4.5802239831308451E-036
   6.2666666666666654E-006     6.6818158170704585E-036
   6.4666666666666635E-006     2.1995829629600008E-035
   6.6666666666666616E-006     4.0141654103064826E-035
   6.8666666666666664E-006     5.8767663427065740E-035
   7.0666666666666645E-006     7.4349415019066148E-035
   7.2666666666666626E-006     8.2348642596974795E-035
   7.4666666666666607E-006     7.7628653957001659E-035
   7.6666666666666655E-006     5.5154453227914674E-035
   7.8666666666666636E-006     1.0970783165403828E-035
   8.0666666666666617E-006    -5.6595903175610504E-035
   8.2666666666666598E-006    -1.4562446461268824E-034
   8.4666666666666647E-006    -2.4934469079384761E-034
   8.6666666666666627E-006    -3.5518158740820444E-034
   8.8666666666666608E-006    -4.4438732821596349E-034
   9.0666666666666657E-006    -4.9258815264719484E-034
   9.2666666666666638E-006    -4.7157348197910979E-034
   9.4666666666666619E-006    -3.5259708399870413E-034
   9.6666666666666599E-006    -1.1132853301079749E-034
   9.8666666666666648E-006     2.6564583574500164E-034
   1.0066666666666663E-005     7.7322383725258460E-034
   1.0266666666666661E-005     1.3799803175199594E-033
   1.0466666666666666E-005     2.0215615526144138E-033
   1.0666666666666664E-005     2.5971695448014096E-033
   1.0866666666666662E-005     2.9713543759230987E-033
   1.1066666666666660E-005     2.9833328470289701E-033
   1.1266666666666665E-005     2.4655606462703694E-033
   1.1466666666666663E-005     1.2721499248316270E-033
   1.1666666666666661E-005    -6.8409464133087323E-034
   1.1866666666666666E-005    -3.3896481631914556E-033
   1.2066666666666664E-005    -6.6895546795373222E-033
   1.2266666666666662E-005    -1.0256765672524300E-032
   1.2466666666666660E-005    -1.3581741075269390E-032
   1.2666666666666665E-005    -1.5992352319755610E-032
   1.2866666666666663E-005    -1.6711600578825305E-032
   1.3066666666666661E-005    -1.4955610383368509E-032
   1.3266666666666666E-005    -1.0066929947022224E-032
   1.3466666666666664E-005    -1.6694714235133758E-033
   1.3666666666666662E-005     1.0176939320527897E-032
   1.3866666666666660E-005     2.4850441345274626E-032
   1.4066666666666665E-005     4.1098682622156925E-032
   1.4266666666666663E-005     5.7052489012781134E-032
   1.4466666666666661E-005     7.0334764085970915E-032
   1.4666666666666666E-005     7.8261486896814355E-032
   1.4866666666666664E-005     7.8114156312354043E-032
   1.5066666666666662E-005     6.7448555173981690E-032
   1.5266666666666661E-005     4.4399967405629130E-032
   1.5466666666666665E-005     7.9522134058410209E-033
   1.5666666666666663E-005    -4.1840889755266117E-032
   1.5866666666666662E-005    -1.0366275607867667E-031
   1.6066666666666660E-005    -1.7472236524619514E-031
   1.6266666666666665E-005    -2.5046293397801005E-031
   1.6466666666666663E-005    -3.2414959669546370E-031
   1.6666666666666661E-005    -3.8635906170990676E-031
   1.6866666666666666E-005    -4.2450213717233779E-031
   1.7066666666666664E-005    -4.2265153290595125E-031
   1.7266666666666662E-005    -3.6208014277926606E-031
   1.7466666666666660E-005    -2.2298920948093049E-031
   1.7666666666666665E-005     1.2145783624927777E-032
   1.7866666666666663E-005     3.5341479809308343E-031
   1.8066666666666661E-005     7.9674433457491446E-031
   1.8266666666666666E-005     1.3164713883164044E-030
   1.8466666666666664E-005     1.8588054553733606E-030
   1.8666666666666662E-005     2.3383909757065866E-030
   1.8866666666666660E-005     2.6405039324554901E-030
   1.9066666666666665E-005     2.6311716357845379E-030
   1.9266666666666663E-005     2.1765225824119156E-030
   1.9466666666666661E-005     1.1708820871478531E-030
   1.9666666666666666E-005    -4.2931465806437827E-031
   1.9866666666666664E-005    -2.5714230446836543E-030
   2.0066666666666662E-005    -5.0802492284346086E-030
   2.0266666666666660E-005    -7.6485591879190932E-030
   2.0466666666666665E-005    -9.8527423749199821E-030
   2.0666666666666663E-005    -1.1198672498023926E-029
   2.0866666666666661E-005    -1.1197094138249190E-029
   2.1066666666666659E-005    -9.4603273779036221E-030
   2.1266666666666664E-005    -5.8041953859421949E-030
   2.1466666666666662E-005    -3.3287827701726863E-031
   2.1666666666666660E-005     6.5177742475128170E-030
   2.1866666666666665E-005     1.3999145412982254E-029
   2.2066666666666663E-005     2.1140860777165773E-029
   2.2266666666666661E-005     2.6906980678570710E-029
   2.2466666666666659E-005     3.0390316881752222E-029
   2.2666666666666664E-005     3.0999461439772062E-029
   2.2866666666666662E-005     2.8582714267588815E-029
   2.3066666666666660E-005     2.3436712210988419E-029
   2.3266666666666665E-005     1.6169099709119967E-029
   2.3466666666666663E-005     7.4241371918838324E-030
   2.3666666666666661E-005    -2.4685907988737206E-030
   2.3866666666666660E-005    -1.3810768399562416E-029
   2.4066666666666664E-005    -2.7671304032594013E-029
   2.4266666666666662E-005    -4.5696449512509802E-029
   2.4466666666666661E-005    -6.9499457047960213E-029
   2.4666666666666665E-005    -9.9640826419541618E-029
   2.4866666666666663E-005    -1.3435940904520234E-028
   2.5066666666666662E-005    -1.6838080503099488E-028
   2.5266666666666660E-005    -1.9226402153009794E-028
   2.5466666666666665E-005    -1.9279631245554012E-028
   2.5666666666666663E-005    -1.5485643144195946E-028
   2.5866666666666661E-005    -6.4903026624154560E-029
   2.6066666666666666E-005     8.4183288611765358E-029
   2.6266666666666664E-005     2.8771426513189598E-028
   2.6466666666666662E-005     5.2460583903683773E-028
   2.6666666666666660E-005     7.5529262036582282E-028
   2.6866666666666665E-005     9.2386926839803757E-028
   2.7066666666666663E-005     9.6570759273092257E-028
   2.7266666666666661E-005     8.2075950511091428E-028
   2.7466666666666666E-005     4.5122829334167292E-028
   2.7666666666666664E-005    -1.3949527439083763E-028
   2.7866666666666662E-005    -8.9136534872661419E-028
   2.8066666666666667E-005    -1.6813647674342505E-027
   2.8266666666666658E-005    -2.3317588207806032E-027
   2.8466666666666663E-005    -2.6364455602145304E-027
   2.8666666666666668E-005    -2.4052993001490631E-027
   2.8866666666666659E-005    -1.5213801743664333E-027
   2.9066666666666664E-005    -3.0133581392368789E-031
   2.9266666666666669E-005     1.9637290158477575E-027
   2.9466666666666660E-005     3.9830530810281636E-027
   2.9666666666666665E-005     5.5091237614776548E-027
   2.9866666666666656E-005     5.9220173340930234E-027
   3.0066666666666661E-005     4.6745555312584785E-027
   3.0266666666666666E-005     1.4729128954614647E-027
   3.0466666666666657E-005    -3.5412551518074314E-027
   3.0666666666666662E-005    -9.6559579249765089E-027
   3.0866666666666667E-005    -1.5556002709520007E-026
   3.1066666666666658E-005    -1.9440286014094227E-026
   3.1266666666666663E-005    -1.9315664479996773E-026
   3.1466666666666668E-005    -1.3456933203876314E-026
   3.1666666666666659E-005    -9.7472007820217986E-028
   3.1866666666666664E-005     1.7616898742921990E-026
   3.2066666666666656E-005     3.9981208635782693E-026
   3.2266666666666660E-005     6.1852173854833118E-026
   3.2466666666666665E-005     7.7383593994542967E-026
   3.2666666666666657E-005     8.0032219135725802E-026
   3.2866666666666661E-005     6.3944719850569183E-026
   3.3066666666666666E-005     2.5679527121187161E-026
   3.3266666666666658E-005    -3.4049630985445732E-026
   3.3466666666666662E-005    -1.0903715550650512E-025
   3.3666666666666667E-005    -1.8713127898357098E-025
   3.3866666666666659E-005    -2.5108138527500862E-025
   3.4066666666666664E-005    -2.8092478218042472E-025
   3.4266666666666668E-005    -2.5785126630409891E-025
   3.4466666666666660E-005    -1.6909672307290917E-025
   3.4666666666666665E-005    -1.3014309821081418E-026
   3.4866666666666656E-005     1.9685411289993639E-025
   3.5066666666666661E-005     4.3002548367969497E-025
   3.5266666666666666E-005     6.4082469755762744E-025
   3.5466666666666657E-005     7.7434625899539780E-025
   3.5666666666666662E-005     7.7654131376798184E-025
   3.5866666666666667E-005     6.0730816706227601E-025
   3.6066666666666658E-005     2.5437492885811292E-025
   3.6266666666666663E-005    -2.5513657406210381E-025
   3.6466666666666668E-005    -8.4899951911530934E-025
   3.6666666666666659E-005    -1.4132570320855393E-024
   3.6866666666666664E-005    -1.8067308922408516E-024
   3.7066666666666669E-005    -1.8866549264989973E-024
   3.7266666666666660E-005    -1.5427204465078199E-024
   3.7466666666666665E-005    -7.3391999722360237E-025
   3.7666666666666656E-005     4.7986906833040569E-025
   3.7866666666666661E-005     1.9209037171296202E-024
   3.8066666666666666E-005     3.2999507113765057E-024
   3.8266666666666657E-005     4.2519050588778882E-024
   3.8466666666666662E-005     4.4013488409152197E-024
   3.8666666666666667E-005     3.4517567373945215E-024
   3.8866666666666658E-005     1.2843665278956755E-024
   3.9066666666666663E-005    -1.9540297614768872E-024
   3.9266666666666668E-005    -5.7990900636788064E-024
   3.9466666666666659E-005    -9.4767990468644245E-024
   3.9666666666666664E-005    -1.1988770405081503E-023
   3.9866666666666655E-005    -1.2279834046698184E-023
   4.0066666666666660E-005    -9.4749499569025864E-024
   4.0266666666666665E-005    -3.1520941174804788E-024
   4.0466666666666656E-005     6.4012449475739196E-024
   4.0666666666666661E-005     1.8013245917991005E-023
   4.0866666666666666E-005     2.9601806675470352E-023
   4.1066666666666657E-005     3.8351896012392508E-023
   4.1266666666666662E-005     4.1121485676427612E-023
   4.1466666666666667E-005     3.5057508742550073E-023
   4.1666666666666658E-005     1.8350293050633924E-023
   4.1866666666666663E-005    -8.9987903590675628E-024
   4.2066666666666668E-005    -4.4563528775065694E-023
   4.2266666666666660E-005    -8.3218192758325647E-023
   4.2466666666666664E-005    -1.1737010811434372E-022
   4.2666666666666656E-005    -1.3780917862425805E-022
   4.2866666666666661E-005    -1.3518382428813356E-022
   4.3066666666666665E-005    -1.0198169115111434E-022
   4.3266666666666657E-005    -3.4748534014080349E-023
   4.3466666666666662E-005     6.3851714333134983E-023
   4.3666666666666666E-005     1.8361821779447186E-022
   4.3866666666666658E-005     3.0652779553769891E-022
   4.4066666666666663E-005     4.0798520342031612E-022
   4.4266666666666667E-005     4.5981417268690354E-022
   4.4466666666666659E-005     4.3489772962734649E-022
   4.4666666666666664E-005     3.1301647309484209E-022
   4.4866666666666655E-005     8.7063984334586706E-023
   4.5066666666666660E-005    -2.3149238121858392E-022
   4.5266666666666665E-005    -6.0920423329658952E-022
   4.5466666666666656E-005    -9.9054928840322998E-022
   4.5666666666666661E-005    -1.3021182964003001E-021
   4.5866666666666666E-005    -1.4614811239520157E-021
   4.6066666666666657E-005    -1.3903497506984033E-021
   4.6266666666666662E-005    -1.0307261131456554E-021
   4.6466666666666667E-005    -3.6181371737403309E-022
   4.6666666666666658E-005     5.8526840114020736E-022
   4.6866666666666663E-005     1.7182974800846811E-021
   4.7066666666666668E-005     2.8834730574354689E-021
   4.7266666666666659E-005     3.8760762619568558E-021
   4.7466666666666664E-005     4.4632949292031612E-021
   4.7666666666666655E-005     4.4183165794988069E-021
   4.7866666666666660E-005     3.5625812721477939E-021
   4.8066666666666665E-005     1.8108544669853900E-021
   4.8266666666666656E-005    -7.8803276535359803E-022
   4.8466666666666661E-005    -4.0229359597051804E-021
   4.8666666666666666E-005    -7.5126700040889720E-021
   4.8866666666666657E-005    -1.0725295715990015E-020
   4.9066666666666662E-005    -1.3027958130597372E-020
   4.9266666666666667E-005    -1.3766600529245249E-020
   4.9466666666666658E-005    -1.2369812360895696E-020
   4.9666666666666663E-005    -8.4658349091365141E-021
   4.9866666666666655E-005    -1.9970349302435686E-021
   5.0066666666666659E-005     6.6870815526563955E-021
   5.0266666666666664E-005     1.6778294053716931E-020
   5.0466666666666656E-005     2.7017738289899250E-020
   5.0666666666666660E-005     3.5776973516073469E-020
   5.0866666666666665E-005     4.1217450264759837E-020
   5.1066666666666657E-005     4.1523371382085210E-020
   5.1266666666666661E-005     3.5190980675565005E-020
   5.1466666666666666E-005     2.1345100054485377E-020
   5.1666666666666658E-005     4.2996832084635040E-023
   5.1866666666666662E-005    -2.7482216359719114E-020
   5.2066666666666667E-005    -5.8689298103598402E-020
   5.2266666666666659E-005    -8.9755326165991793E-020
   5.2466666666666664E-005    -1.1579815132464060E-019
   5.2666666666666655E-005    -1.3131475422173122E-019
   5.2866666666666660E-005    -1.3083047874717263E-019
   5.3066666666666665E-005    -1.0972413823726958E-019
   5.3266666666666656E-005    -6.5160080004007850E-020
   5.3466666666666661E-005     2.9750560472428323E-021
   5.3666666666666666E-005     9.1262798208884330E-020
   5.3866666666666657E-005     1.9222263473872780E-019
   5.4066666666666662E-005     2.9421881225382658E-019
   5.4266666666666667E-005     3.8194762346724588E-019
   5.4466666666666658E-005     4.3760982180746380E-019
   5.4666666666666663E-005     4.4280766968038217E-019
   5.4866666666666668E-005     3.8111372201221586E-019
   5.5066666666666659E-005     2.4114398317088625E-019
   5.5266666666666664E-005     1.9840996510767006E-020
   5.5466666666666655E-005    -2.7445377095657240E-019
   5.5666666666666660E-005    -6.1966488170366050E-019
   5.5866666666666665E-005    -9.7897156367895847E-019
   5.6066666666666656E-005    -1.3017012495453507E-018
   5.6266666666666661E-005    -1.5266065916172670E-018
   5.6466666666666666E-005    -1.5878053424418496E-018
   5.6666666666666657E-005    -1.4233389858018859E-018
   5.6866666666666662E-005    -9.8589310085207249E-019
   5.7066666666666667E-005    -2.5474138487518605E-019
   5.7266666666666658E-005     7.5252430524645500E-019
   5.7466666666666663E-005     1.9703467006431496E-018
   5.7666666666666654E-005     3.2797957373959782E-018
   5.7866666666666659E-005     4.5095938986048506E-018
   5.8066666666666664E-005     5.4454842416208223E-018
   5.8266666666666655E-005     5.8491740231456890E-018
   5.8466666666666660E-005     5.4869996093842462E-018
   5.8666666666666665E-005     4.1670124984226452E-018
   5.8866666666666656E-005     1.7814875115220331E-018
   5.9066666666666661E-005    -1.6499211263730238E-018
   5.9266666666666666E-005    -5.9427244281126799E-018
   5.9466666666666657E-005    -1.0723306417702659E-017
   5.9666666666666662E-005    -1.5425553576103254E-017
   5.9866666666666667E-005    -1.9315373715356316E-017
   6.0066666666666659E-005    -2.1548025178504319E-017
   6.0266666666666663E-005    -2.1259744463223463E-017
   6.0466666666666655E-005    -1.7690488244197976E-017
   6.0666666666666660E-005    -1.0329082063927237E-017
   6.0866666666666664E-005     9.3391255417135739E-019
   6.1066666666666656E-005     1.5665702305900874E-017
   6.1266666666666661E-005     3.2787460865576790E-017
   6.1466666666666665E-005     5.0533297418921914E-017
   6.1666666666666657E-005     6.6496665631333670E-017
   6.1866666666666662E-005     7.7783558324509534E-017
   6.2066666666666666E-005     8.1282102181690313E-017
   6.2266666666666658E-005     7.4044476962643234E-017
   6.2466666666666663E-005     5.3759920538976912E-017
   6.2666666666666668E-005     1.9278592302238534E-017
   6.2866666666666659E-005    -2.8872534140371518E-017
   6.3066666666666664E-005    -8.8056592284491402E-017
   6.3266666666666655E-005    -1.5326126797346625E-016
   6.3466666666666660E-005    -2.1708684167541308E-016
   6.3666666666666665E-005    -2.7006356444936764E-016
   6.3866666666666656E-005    -3.0135071158967535E-016
   6.4066666666666661E-005    -2.9983306677621206E-016
   6.4266666666666666E-005    -2.5558043925184197E-016
   6.4466666666666657E-005    -1.6157717275181295E-016
   6.4666666666666662E-005    -1.5565894693190225E-017
   6.4866666666666667E-005     1.7821147046778892E-016
   6.5066666666666658E-005     4.0764029686874640E-016
   6.5266666666666663E-005     6.5202018123102835E-016
   6.5466666666666654E-005     8.8230218156810773E-016
   6.5666666666666659E-005     1.0625224700796490E-015
   6.5866666666666664E-005     1.1525938361083032E-015
   6.6066666666666655E-005     1.1124811085834181E-015
   6.6266666666666660E-005     9.0761401419134878E-016
   6.6466666666666665E-005     5.1518264387680657E-016
   6.6666666666666656E-005    -6.9258893011889147E-017
   6.6866666666666661E-005    -8.2566267657198877E-016
   6.7066666666666666E-005    -1.7047835082693277E-015
   6.7266666666666657E-005    -2.6259454968146538E-015
   6.7466666666666662E-005    -3.4783073400983678E-015
   6.7666666666666667E-005    -4.1264976089188266E-015
   6.7866666666666658E-005    -4.4211803712685977E-015
   6.8066666666666663E-005    -4.2146288459817948E-015
   6.8266666666666655E-005    -3.3807501086401169E-015
   6.8466666666666659E-005    -1.8382588542185420E-015
   6.8666666666666664E-005     4.2509677240893068E-016
   6.8866666666666656E-005     3.3301201965256488E-015
   6.9066666666666660E-005     6.6890323134778922E-015
   6.9266666666666665E-005     1.0197430499027469E-014
   6.9466666666666657E-005     1.3439085727508931E-014
   6.9666666666666661E-005     1.5906775611865091E-014
   6.9866666666666666E-005     1.7041184815266147E-014
   7.0066666666666658E-005     1.6288177607354758E-014
   7.0266666666666662E-005     1.3172436367581489E-014
   7.0466666666666654E-005     7.3827493326638488E-015
   7.0666666666666659E-005    -1.1386375918737493E-015
   7.0866666666666664E-005    -1.2112981109682966E-014
   7.1066666666666655E-005    -2.4860845600585026E-014
   7.1266666666666660E-005    -3.8270547755153705E-014
   7.1466666666666665E-005    -5.0812805162505151E-014
   7.1666666666666656E-005    -6.0613250800912316E-014
   7.1866666666666661E-005    -6.5590301202497758E-014
   7.2066666666666666E-005    -6.3659743709115757E-014
   7.2266666666666657E-005    -5.2999464761555384E-014
   7.2466666666666662E-005    -3.2357885088821897E-014
   7.2666666666666667E-005    -1.3797802486605233E-015
   7.2866666666666658E-005     3.9086640282910701E-014
   7.3066666666666663E-005     8.6745470832469418E-014
   7.3266666666666654E-005     1.3772014399119487E-013
   7.3466666666666659E-005     1.8658018923270459E-013
   7.3666666666666664E-005     2.2656963111211681E-013
   7.3866666666666655E-005     2.5006572875775623E-013
   7.4066666666666660E-005     2.4927634826102385E-013
   7.4266666666666665E-005     2.1715685890114078E-013
   7.4466666666666656E-005     1.4849575833298517E-013
   7.4666666666666661E-005     4.1082476911471696E-014
   7.4866666666666666E-005    -1.0316193157968584E-013
   7.5066666666666657E-005    -2.7723962990784667E-013
   7.5266666666666662E-005    -4.6848272873892260E-013
   7.5466666666666653E-005    -6.5848157005179986E-013