  -3.3333333333333335E-005     0.0000000000000000     
  -3.3133333333333337E-005     0.0000000000000000     
  -3.2933333333333332E-005     0.0000000000000000     
  -3.2733333333333334E-005     0.0000000000000000     
  -3.2533333333333336E-005     0.0000000000000000     
  -3.2333333333333338E-005     0.0000000000000000     
  -3.2133333333333333E-005     0.0000000000000000     
  -3.1933333333333335E-005     0.0000000000000000     
  -3.1733333333333337E-005     0.0000000000000000     
  -3.1533333333333332E-005     0.0000000000000000     
  -3.1333333333333334E-005     0.0000000000000000     
  -3.1133333333333336E-005     0.0000000000000000     
  -3.0933333333333338E-005     0.0000000000000000     
  -3.0733333333333333E-005     0.0000000000000000     
  -3.0533333333333335E-005     0.0000000000000000     
  -3.0333333333333337E-005     0.0000000000000000     
  -3.0133333333333335E-005     0.0000000000000000     
  -2.9933333333333334E-005     0.0000000000000000     
  -2.9733333333333336E-005     0.0000000000000000     
  -2.9533333333333334E-005     0.0000000000000000     
  -2.9333333333333336E-005     0.0000000000000000     
  -2.9133333333333334E-005     0.0000000000000000     
  -2.8933333333333336E-005     0.0000000000000000     
  -2.8733333333333335E-005     0.0000000000000000     
  -2.8533333333333333E-005     0.0000000000000000     
  -2.8333333333333335E-005     0.0000000000000000     
  -2.8133333333333337E-005     0.0000000000000000     
  -2.7933333333333336E-005     0.0000000000000000     
  -2.7733333333333334E-005     0.0000000000000000     
  -2.7533333333333336E-005     0.0000000000000000     
  -2.7333333333333335E-005     0.0000000000000000     
  -2.7133333333333333E-005     0.0000000000000000     
  -2.6933333333333335E-005     0.0000000000000000     
  -2.6733333333333337E-005     0.0000000000000000     
  -2.6533333333333336E-005     0.0000000000000000     
  -2.6333333333333334E-005     0.0000000000000000     
  -2.6133333333333336E-005     0.0000000000000000     
  -2.5933333333333335E-005     0.0000000000000000     
  -2.5733333333333333E-005     0.0000000000000000     
  -2.5533333333333335E-005     0.0000000000000000     
  -2.5333333333333337E-005     0.0000000000000000     
  -2.5133333333333336E-005     0.0000000000000000     
  -2.4933333333333334E-005     0.0000000000000000     
  -2.4733333333333336E-005     0.0000000000000000     
  -2.4533333333333334E-005     0.0000000000000000     
  -2.4333333333333333E-005     0.0000000000000000     
  -2.4133333333333335E-005     0.0000000000000000     
  -2.3933333333333337E-005     0.0000000000000000     
  -2.3733333333333335E-005     0.0000000000000000     
  -2.3533333333333334E-005     0.0000000000000000     
  -2.3333333333333336E-005     0.0000000000000000     
  -2.3133333333333338E-005     0.0000000000000000     
  -2.2933333333333336E-005     0.0000000000000000     
  -2.2733333333333335E-005     0.0000000000000000     
  -2.2533333333333337E-005     0.0000000000000000     
  -2.2333333333333335E-005     0.0000000000000000     
  -2.2133333333333334E-005     0.0000000000000000     
  -2.1933333333333336E-005     0.0000000000000000     
  -2.1733333333333338E-005     0.0000000000000000     
  -2.1533333333333336E-005     0.0000000000000000     
  -2.1333333333333335E-005     0.0000000000000000     
  -2.1133333333333337E-005     0.0000000000000000     
  -2.0933333333333335E-005     0.0000000000000000     
  -2.0733333333333334E-005     0.0000000000000000     
  -2.0533333333333336E-005     0.0000000000000000     
  -2.0333333333333337E-005     0.0000000000000000     
  -2.0133333333333336E-005     0.0000000000000000     
  -1.9933333333333334E-005     0.0000000000000000     
  -1.9733333333333336E-005     0.0000000000000000     
  -1.9533333333333335E-005     0.0000000000000000     
  -1.9333333333333333E-005     0.0000000000000000     
  -1.9133333333333335E-005     0.0000000000000000     
  -1.8933333333333337E-005     0.0000000000000000     
  -1.8733333333333336E-005     0.0000000000000000     
  -1.8533333333333334E-005     0.0000000000000000     
  -1.8333333333333336E-005     0.0000000000000000     
  -1.8133333333333335E-005     0.0000000000000000     
  -1.7933333333333337E-005     0.0000000000000000     
  -1.7733333333333335E-005     0.0000000000000000     
  -1.7533333333333337E-005     0.0000000000000000     
  -1.7333333333333336E-005     0.0000000000000000     
  -1.7133333333333334E-005     0.0000000000000000     
  -1.6933333333333336E-005     0.0000000000000000     
  -1.6733333333333335E-005     0.0000000000000000     
  -1.6533333333333337E-005     0.0000000000000000     
  -1.6333333333333335E-005     0.0000000000000000     
  -1.6133333333333337E-005     0.0000000000000000     
  -1.5933333333333336E-005     0.0000000000000000     
  -1.5733333333333334E-005     0.0000000000000000     
  -1.5533333333333336E-005     0.0000000000000000     
  -1.5333333333333334E-005     0.0000000000000000     
  -1.5133333333333336E-005     0.0000000000000000     
  -1.4933333333333335E-005     0.0000000000000000     
  -1.4733333333333337E-005     0.0000000000000000     
  -1.4533333333333335E-005     0.0000000000000000     
  -1.4333333333333337E-005     0.0000000000000000     
  -1.4133333333333336E-005     0.0000000000000000     
  -1.3933333333333334E-005     0.0000000000000000     
  -1.3733333333333336E-005     0.0000000000000000     
  -1.3533333333333335E-005     0.0000000000000000     
  -1.3333333333333337E-005     0.0000000000000000     
  -1.3133333333333335E-005     0.0000000000000000     
  -1.2933333333333337E-005     0.0000000000000000     
  -1.2733333333333336E-005     0.0000000000000000     
  -1.2533333333333338E-005     0.0000000000000000     
  -1.2333333333333336E-005     0.0000000000000000     
  -1.2133333333333335E-005     0.0000000000000000     
  -1.1933333333333337E-005     0.0000000000000000     
  -1.1733333333333335E-005     0.0000000000000000     
  -1.1533333333333337E-005     0.0000000000000000     
  -1.1333333333333336E-005     0.0000000000000000     
  -1.1133333333333337E-005     0.0000000000000000     
  -1.0933333333333336E-005     0.0000000000000000     
  -1.0733333333333334E-005     0.0000000000000000     
  -1.0533333333333336E-005     0.0000000000000000     
  -1.0333333333333335E-005     0.0000000000000000     
  -1.0133333333333337E-005     0.0000000000000000     
  -9.9333333333333354E-006     0.0000000000000000     
  -9.7333333333333373E-006     0.0000000000000000     
  -9.5333333333333358E-006     0.0000000000000000     
  -9.3333333333333343E-006     0.0000000000000000     
  -9.1333333333333362E-006     0.0000000000000000     
  -8.9333333333333348E-006     0.0000000000000000     
  -8.7333333333333367E-006     0.0000000000000000     
  -8.5333333333333352E-006     0.0000000000000000     
  -8.3333333333333371E-006     0.0000000000000000     
  -8.1333333333333356E-006     0.0000000000000000     
  -7.9333333333333376E-006     0.0000000000000000     
  -7.7333333333333361E-006     0.0000000000000000     
  -7.5333333333333346E-006     0.0000000000000000     
  -7.3333333333333365E-006     0.0000000000000000     
  -7.1333333333333351E-006     0.0000000000000000     
  -6.9333333333333370E-006     0.0000000000000000     
  -6.7333333333333355E-006     0.0000000000000000     
  -6.5333333333333374E-006     0.0000000000000000     
  -6.3333333333333359E-006     0.0000000000000000     
  -6.1333333333333379E-006     0.0000000000000000     
  -5.9333333333333364E-006     0.0000000000000000     
  -5.7333333333333349E-006     0.0000000000000000     
  -5.5333333333333368E-006     0.0000000000000000     
  -5.3333333333333354E-006     0.0000000000000000     
  -5.1333333333333373E-006     0.0000000000000000     
  -4.9333333333333358E-006     0.0000000000000000     
  -4.7333333333333377E-006     0.0000000000000000     
  -4.5333333333333362E-006     0.0000000000000000     
  -4.3333333333333348E-006     0.0000000000000000     
  -4.1333333333333367E-006     0.0000000000000000     
  -3.9333333333333352E-006     0.0000000000000000     
  -3.7333333333333371E-006     0.0000000000000000     
  -3.5333333333333356E-006     0.0000000000000000     
  -3.3333333333333376E-006     0.0000000000000000     
  -3.1333333333333361E-006     0.0000000000000000     
  -2.9333333333333346E-006     0.0000000000000000     
  -2.7333333333333365E-006     0.0000000000000000     
  -2.5333333333333384E-006     0.0000000000000000     
  -2.3333333333333336E-006     0.0000000000000000     
  -2.1333333333333355E-006     0.0000000000000000     
  -1.9333333333333374E-006     0.0000000000000000     
  -1.7333333333333393E-006     0.0000000000000000     
  -1.5333333333333345E-006     0.0000000000000000     
  -1.3333333333333364E-006     0.0000000000000000     
  -1.1333333333333383E-006     0.0000000000000000     
  -9.3333333333333343E-007    -1.3145761661333007E-038
  -7.3333333333333535E-007    -2.6578708232541670E-038
  -5.3333333333333726E-007    -2.6578708232541670E-038
  -3.3333333333333918E-007    -2.6578708232541670E-038
  -1.3333333333333432E-007     0.0000000000000000     
   6.6666666666663770E-008     5.9185970614424423E-038
   2.6666666666666185E-007     1.2673057446466923E-037
   4.6666666666666672E-007     2.0355328755108580E-037
   6.6666666666666480E-007     2.6984371806537219E-037
   8.6666666666666289E-007     2.6943379902820018E-037
   1.0666666666666610E-006     1.8186377692289971E-037
   1.2666666666666658E-006    -1.7693175563747437E-038
   1.4666666666666639E-006    -3.3689212773459344E-037
   1.6666666666666620E-006    -7.5511898145491364E-037
   1.8666666666666669E-006    -1.2127841361006195E-036
   2.0666666666666649E-006    -1.6103867238645579E-036
   2.2666666666666630E-006    -1.8157864967968907E-036
   2.4666666666666611E-006    -1.6801623293946604E-036
   2.6666666666666660E-006    -1.0678266483027231E-036
   2.8666666666666641E-006     1.0772458402682831E-037
   3.0666666666666622E-006     1.8402497151845859E-036
   3.2666666666666602E-006     3.9907304983630721E-036
   3.4666666666666651E-006     6.2585668217578753E-036
   3.6666666666666632E-006     8.1784675075350061E-036
   3.8666666666666613E-006     9.1535201260202718E-036
   4.0666666666666661E-006     8.5312514136314881E-036
   4.2666666666666642E-006     5.7270993799980849E-036
   4.4666666666666623E-006     3.8572459904016009E-037
   4.6666666666666604E-006    -7.4355154737576023E-036
   4.8666666666666652E-006    -1.7092515815351110E-035
   5.0666666666666633E-006    -2.7237765311987087E-035
   5.2666666666666614E-006    -3.5810204228180621E-035
   5.4666666666666663E-006    -4.0183665972697852E-035
   5.6666666666666644E-006    -3.7511080842945011E-035
   5.8666666666666624E-006    -2.5277502208183706E-035
   6.0666666666666605E-006    -2.0239732617981743E-036
   6.2666666666666654E-006     3.1843613909672860E-035
   6.4666666666666635E-006     7.3310325078631027E-035
   6.6666666666666616E-006     1.1627420738257888E-034
   6.8666666666666664E-006     1.5156500439378618E-034
   7.0666666666666645E-006     1.6767942482237698E-034
   7.2666666666666626E-006     1.5238204184422979E-034
   7.4666666666666607E-006     9.5188984094570458E-035
   7.6666666666666655E-006    -9.4471504931539877E-036
   7.8666666666666636E-006    -1.5867477075309362E-034
   8.0666666666666617E-006    -3.3817679888548788E-034
   8.2666666666666598E-006    -5.2037403811800090E-034
   8.4666666666666647E-006    -6.6486093643978011E-034
   8.6666666666666627E-006    -7.2193059024147714E-034
   8.8666666666666608E-006    -6.3970806647931981E-034
   9.0666666666666657E-006    -3.7480742986789219E-034
   9.2666666666666638E-006     9.4404731916255253E-035
   9.4666666666666619E-006     7.5381477248157779E-034
   9.6666666666666599E-006     1.5416334741255750E-033
   9.8666666666666648E-006     2.3419809251684223E-033
   1.0066666666666663E-005     2.9875633409949842E-033
   1.0266666666666661E-005     3.2744041664047771E-033
   1.0466666666666666E-005     2.9900923068881829E-033
   1.0666666666666664E-005     1.9546463530228628E-033
   1.0866666666666662E-005     7.0084718070451783E-035
   1.1066666666666660E-005    -2.6284119805943582E-033
   1.1266666666666665E-005    -5.9296130100940679E-033
   1.1466666666666663E-005    -9.4230690794066397E-033
   1.1666666666666661E-005    -1.2506779409433240E-032
   1.1866666666666666E-005    -1.4434114069569709E-032
   1.2066666666666664E-005    -1.4403251465388870E-032
   1.2266666666666662E-005    -1.1685173510397757E-032
   1.2466666666666660E-005    -5.7780410950791958E-033
   1.2666666666666665E-005     3.4320522851874465E-033
   1.2866666666666663E-005     1.5529714477470421E-032
   1.3066666666666661E-005     2.9476249653366369E-032
   1.3266666666666666E-005     4.3588705856880883E-032
   1.3466666666666664E-005     5.5610915638178467E-032
   1.3666666666666662E-005     6.2885256716730800E-032
   1.3866666666666660E-005     6.2622192835960280E-032
   1.4066666666666665E-005     5.2253721404645277E-032
   1.4266666666666663E-005     2.9848681528537394E-032
   1.4466666666666661E-005    -5.4369912456552792E-033
   1.4666666666666666E-005    -5.2904868867868020E-032
   1.4866666666666664E-005    -1.0988758641345610E-031
   1.5066666666666662E-005    -1.7139568096853754E-031
   1.5266666666666661E-005    -2.2990264440642161E-031
   1.5466666666666665E-005    -2.7536439471684624E-031
   1.5666666666666663E-005    -2.9560647796766708E-031
   1.5866666666666662E-005    -2.7724283468946025E-031
   1.6066666666666660E-005    -2.0729052944547288E-031
   1.6266666666666665E-005    -7.5591692372283267E-032
   1.6466666666666663E-005     1.2197961468172077E-031
   1.6666666666666661E-005     3.7977389533682628E-031
   1.6866666666666666E-005     6.7864124165344841E-031
   1.7066666666666664E-005     9.8312178508423012E-031
   1.7266666666666662E-005     1.2407421866149620E-030
   1.7466666666666660E-005     1.3847330975850392E-030
   1.7666666666666665E-005     1.3413077031583181E-030
   1.7866666666666663E-005     1.0420533605915182E-030
   1.8066666666666661E-005     4.4093785216576098E-031
   1.8266666666666666E-005    -4.6601330957840589E-031
   1.8466666666666664E-005    -1.6219435317617658E-030
   1.8666666666666662E-005    -2.8963172700305899E-030
   1.8866666666666660E-005    -4.0837843599544206E-030
   1.9066666666666665E-005    -4.9201032635023105E-030
   1.9266666666666663E-005    -5.1183905406555134E-030
   1.9466666666666661E-005    -4.4250971380772574E-030
   1.9666666666666666E-005    -2.6897200941730060E-030
   1.9866666666666664E-005     6.3788247967145465E-032
   2.0066666666666662E-005     3.5813171367858283E-030
   2.0266666666666660E-005     7.3588511760346433E-030
   2.0466666666666665E-005     1.0677474477671591E-029
   2.0666666666666663E-005     1.2704712851031902E-029
   2.0866666666666661E-005     1.2660571439486208E-029
   2.1066666666666659E-005     1.0028470692966780E-029
   2.1266666666666664E-005     4.7714304995922302E-030
   2.1466666666666662E-005    -2.5029520974205732E-030
   2.1666666666666660E-005    -1.0492865064705460E-029
   2.1866666666666665E-005    -1.7324884875300435E-029
   2.2066666666666663E-005    -2.0879552708797190E-029
   2.2266666666666661E-005    -1.9305353243667518E-029
   2.2466666666666659E-005    -1.1647225343653636E-029
   2.2666666666666664E-005     1.5463154225744941E-030
   2.2866666666666662E-005     1.7821493434624529E-029
   2.3066666666666660E-005     3.2821932834959246E-029
   2.3266666666666665E-005     4.0858233630514022E-029
   2.3466666666666663E-005     3.6109013767542160E-029
   2.3666666666666661E-005     1.4361095358007223E-029
   2.3866666666666660E-005    -2.4998498455773407E-029
   2.4066666666666664E-005    -7.7219137969923266E-029
   2.4266666666666662E-005    -1.3126712388943204E-028
   2.4466666666666661E-005    -1.7038024531394694E-028
   2.4666666666666665E-005    -1.7456633830750767E-028
   2.4866666666666663E-005    -1.2515495650673825E-028
   2.5066666666666662E-005    -1.0967373577917710E-029
   2.5266666666666660E-005     1.6497783126400846E-028
   2.5466666666666665E-005     3.7992015937175220E-028
   2.5666666666666663E-005     5.8906334389807584E-028
   2.5866666666666661E-005     7.2859407947401450E-028
   2.6066666666666666E-005     7.2545866552455208E-028
   2.6266666666666664E-005     5.1406835408736602E-028
   2.6466666666666662E-005     5.8248138201663524E-029
   2.6666666666666660E-005    -6.2541994197850005E-028
   2.6866666666666665E-005    -1.4487187857210889E-027
   2.7066666666666663E-005    -2.2444901201755565E-027
   2.7266666666666661E-005    -2.7778479145104246E-027
   2.7466666666666666E-005    -2.7807549131684827E-027
   2.7666666666666664E-005    -2.0105545357716332E-027
   2.7866666666666662E-005    -3.2688804131259693E-028
   2.8066666666666667E-005     2.2257558292345241E-027
   2.8266666666666658E-005     5.3493551614531006E-027
   2.8466666666666663E-005     8.4613906325065928E-027
   2.8666666666666668E-005     1.0725368274824432E-026
   2.8866666666666659E-005     1.1160320293464845E-026
   2.9066666666666664E-005     8.8335195867330723E-027
   2.9266666666666669E-005     3.1210736676895070E-027
   2.9466666666666660E-005    -6.0023008793827719E-027
   2.9666666666666665E-005    -1.7705713387493396E-026
   2.9866666666666656E-005    -3.0154272813319308E-026
   3.0066666666666661E-005    -4.0551499603475087E-026
   3.0266666666666666E-005    -4.5436702566842952E-026
   3.0466666666666657E-005    -4.1264272409197203E-026
   3.0666666666666662E-005    -2.5233310723488015E-026
   3.0866666666666667E-005     3.7368710858868652E-027
   3.1066666666666658E-005     4.4064531407505490E-026
   3.1266666666666663E-005     9.0834794090160829E-026
   3.1466666666666668E-005     1.3566264086810498E-025
   3.1666666666666659E-005     1.6732178603616190E-025
   3.1866666666666664E-005     1.7327623140828653E-025
   3.2066666666666656E-005     1.4208909623248795E-025
   3.2266666666666660E-005     6.6469697207834446E-026
   3.2466666666666665E-005    -5.3514012694260176E-026
   3.2666666666666657E-005    -2.0773594372344284E-025
   3.2866666666666661E-005    -3.7462540933164033E-025
   3.3066666666666666E-005    -5.2187280539361026E-025
   3.3266666666666658E-005    -6.0980150986464675E-025
   3.3466666666666662E-005    -5.9757426444133422E-025
   3.3666666666666667E-005    -4.5182180909856468E-025
   3.3866666666666659E-005    -1.5659994606499558E-025
   3.4066666666666664E-005     2.7708418821145294E-025
   3.4266666666666668E-005     8.0442404619727769E-025
   3.4466666666666660E-005     1.3450446240415311E-024
   3.4666666666666665E-005     1.7883829736615424E-024
   3.4866666666666656E-005     2.0073962017150887E-024
   3.5066666666666661E-005     1.8803373339395349E-024
   3.5266666666666666E-005     1.3185052724300200E-024
   3.5466666666666657E-005     2.9590882529654852E-025
   3.5666666666666662E-005    -1.1249057900838476E-024
   3.5866666666666667E-005    -2.7776029131103392E-024
   3.6066666666666658E-005    -4.3939532699287727E-024
   3.6266666666666663E-005    -5.6278275722944195E-024
   3.6466666666666668E-005    -6.1030661750225976E-024
   3.6666666666666659E-005    -5.4824870502555951E-024
   3.6866666666666664E-005    -3.5500010801002937E-024
   3.7066666666666669E-005    -2.9262750905747514E-025
   3.7266666666666660E-005     4.0347288906573753E-024
   3.7466666666666665E-005     8.8803720820021211E-024
   3.7666666666666656E-005     1.3419453275955761E-023
   3.7866666666666661E-005     1.6640812536358266E-023
   3.8066666666666666E-005     1.7497689028827433E-023
   3.8266666666666657E-005     1.5110021638889651E-023
   3.8466666666666662E-005     8.9918807263987320E-024
   3.8666666666666667E-005    -7.3515170491949183E-025
   3.8866666666666658E-005    -1.3190099067510899E-023
   3.9066666666666663E-005    -2.6690534437413934E-023
   3.9266666666666668E-005    -3.8859972922452773E-023
   3.9466666666666659E-005    -4.6905050957491669E-023
   3.9666666666666664E-005    -4.8054247746999534E-023
   3.9866666666666655E-005    -4.0114968581125260E-023
   4.0066666666666660E-005    -2.2070250268459558E-023
   4.0266666666666665E-005     5.3931651188183251E-024
   4.0466666666666656E-005     3.9549251182442306E-023
   4.0666666666666661E-005     7.5608524922201679E-023
   4.0866666666666666E-005     1.0709412828389619E-022
   4.1066666666666657E-005     1.2665126492354791E-022
   4.1266666666666662E-005     1.2724610391140800E-022
   4.1466666666666667E-005     1.0362163199887295E-022
   4.1666666666666658E-005     5.3792551344765630E-023
   4.1866666666666663E-005    -1.9703312565389173E-023
   4.2066666666666668E-005    -1.0910516823413249E-022
   4.2266666666666660E-005    -2.0156057509379789E-022
   4.2466666666666664E-005    -2.8027702896684034E-022
   4.2666666666666656E-005    -3.2673187385027876E-022
   4.2866666666666661E-005    -3.2378211466637842E-022
   4.3066666666666665E-005    -2.5930057378651498E-022
   4.3266666666666657E-005    -1.2976854029839374E-022
   4.3466666666666662E-005     5.6880064575379286E-023
   4.3666666666666666E-005     2.7989860292427496E-022
   4.3866666666666658E-005     5.0648313335268067E-022
   4.4066666666666663E-005     6.9502275772312605E-022
   4.4266666666666667E-005     8.0083649533808888E-022
   4.4466666666666659E-005     7.8390529363618789E-022
   4.4666666666666664E-005     6.1760543785412501E-022
   4.4866666666666655E-005     2.9701201256262027E-022
   4.5066666666666660E-005    -1.5492258826260336E-022
   4.5266666666666665E-005    -6.8501328666089838E-022
   4.5466666666666656E-005    -1.2126836335842305E-021
   4.5666666666666661E-005    -1.6387102247464705E-021
   4.5866666666666666E-005    -1.8596130886346613E-021
   4.6066666666666657E-005    -1.7862886568209855E-021
   4.6266666666666662E-005    -1.3643327393909798E-021
   4.6466666666666667E-005    -5.9256419068847475E-022
   4.6666666666666658E-005     4.6422654309795606E-022
   4.6866666666666663E-005     1.6721208695979577E-021
   4.7066666666666668E-005     2.8373934831509750E-021
   4.7266666666666659E-005     3.7294895984341591E-021
   4.7466666666666664E-005     4.1165006690806548E-021
   4.7666666666666655E-005     3.8092939482934865E-021
   4.7866666666666660E-005     2.7078938750015020E-021
   4.8066666666666665E-005     8.4173286220027176E-022
   4.8266666666666656E-005    -1.6054252927688393E-021
   4.8466666666666661E-005    -4.2943436929859888E-021
   4.8666666666666666E-005    -6.7588770331962337E-021
   4.8866666666666657E-005    -8.4658833767505309E-021
   4.9066666666666662E-005    -8.9025176101113223E-021
   4.9266666666666667E-005    -7.6807354946599878E-021
   4.9466666666666658E-005    -4.6430928135405053E-021
   4.9666666666666663E-005     5.0175945949576621E-023
   4.9866666666666655E-005     5.8740817561711104E-021
   5.0066666666666659E-005     1.1950641816658717E-020
   5.0266666666666664E-005     1.7131687583384606E-020
   5.0466666666666656E-005     2.0154394565348034E-020
   5.0666666666666660E-005     1.9857851931334908E-020
   5.0866666666666665E-005     1.5434556920083011E-020
   5.1066666666666657E-005     6.6777252836672398E-021
   5.1266666666666661E-005    -5.8234779320665419E-021
   5.1466666666666666E-005    -2.0590742031992560E-020
   5.1666666666666658E-005    -3.5308576031866782E-020
   5.1866666666666662E-005    -4.7048197935032112E-020
   5.2066666666666667E-005    -5.2664776912487045E-020
   5.2266666666666659E-005    -4.9337859719973035E-020
   5.2466666666666664E-005    -3.5191006524959147E-020
   5.2666666666666655E-005    -9.8965342514264734E-021
   5.2866666666666660E-005     2.4849219690606132E-020
   5.3066666666666665E-005     6.5099256379591061E-020
   5.3266666666666656E-005     1.0478159190559746E-019
   5.3466666666666661E-005     1.3624307046192802E-019
   5.3666666666666666E-005     1.5121907205462401E-019
   5.3866666666666657E-005     1.4216348644930560E-019
   5.4066666666666662E-005     1.0379436476921249E-019
   5.4266666666666667E-005     3.4638763299677700E-020
   5.4466666666666658E-005    -6.1691789243755432E-020
   5.4666666666666663E-005    -1.7578079155240541E-019
   5.4866666666666668E-005    -2.9250031868185352E-019
   5.5066666666666659E-005    -3.9210123963694015E-019
   5.5266666666666664E-005    -4.5235865892443742E-019
   5.5466666666666655E-005    -4.5167075484752301E-019
   5.5666666666666660E-005    -3.7282855174991402E-019
   5.5866666666666665E-005    -2.0700307274004036E-019
   5.6066666666666656E-005     4.2642530594998118E-020
   5.6266666666666661E-005     3.5837899891831974E-019
   5.6466666666666666E-005     7.0702228882204349E-019
   5.6666666666666657E-005     1.0412571264308592E-018
   5.6866666666666662E-005     1.3034742077907815E-018
   5.7066666666666667E-005     1.4321056527288761E-018
   5.7266666666666658E-005     1.3700687611486241E-018
   5.7466666666666663E-005     1.0745367738229754E-018
   5.7666666666666654E-005     5.2690019492101837E-019
   5.7866666666666659E-005    -2.5847463192539686E-019
   5.8066666666666664E-005    -1.2281942580011321E-018
   5.8266666666666655E-005    -2.2879261532206335E-018
   5.8466666666666660E-005    -3.3057776872314219E-018
   5.8666666666666665E-005    -4.1216399874628865E-018
   5.8866666666666656E-005    -4.5625284947245691E-018
   5.9066666666666661E-005    -4.4631903070115446E-018
   5.9266666666666666E-005    -3.6904518272446133E-018
   5.9466666666666657E-005    -2.1690332090317023E-018
   5.9666666666666662E-005     9.4052193406080922E-020
   5.9866666666666667E-005     2.9898048261986691E-018
   6.0066666666666659E-005     6.2956447587711857E-018
   6.0266666666666663E-005     9.6751081085591376E-018
   6.0466666666666655E-005     1.2691440410207229E-017
   6.0666666666666660E-005     1.4836784614061485E-017
   6.0866666666666664E-005     1.5577379268814912E-017
   6.1066666666666656E-005     1.4413579160344654E-017
   6.1266666666666661E-005     1.0951710837163251E-017
   6.1466666666666665E-005     4.9826953004611858E-018
   6.1666666666666657E-005    -3.4396763081175244E-018
   6.1866666666666662E-005    -1.3929953125964501E-017
   6.2066666666666666E-005    -2.5722514562483831E-017
   6.2266666666666658E-005    -3.7655177233712493E-017
   6.2466666666666663E-005    -4.8196819899647481E-017
   6.2666666666666668E-005    -5.5529587432750409E-017
   6.2866666666666659E-005    -5.7693094868495104E-017
   6.3066666666666664E-005    -5.2792771040612561E-017
   6.3266666666666655E-005    -3.9267047845112924E-017
   6.3466666666666660E-005    -1.6198328865407444E-017
   6.3666666666666665E-005     1.6358365152879303E-017
   6.3866666666666656E-005     5.7067025023910869E-017
   6.4066666666666661E-005     1.0307119756919464E-016
   6.4266666666666666E-005     1.4987971392468007E-016
   6.4466666666666657E-005     1.9143630175238872E-016
   6.4666666666666662E-005     2.2042649406308978E-016
   6.4866666666666667E-005     2.2885993789775782E-016
   6.5066666666666658E-005     2.0894046260052545E-016
   6.5266666666666663E-005     1.5419886727162775E-016
   6.5466666666666654E-005     6.0817700149242711E-017
   6.5666666666666659E-005    -7.0974862649018152E-017
   6.5866666666666664E-005    -2.3561574033616011E-016
   6.6066666666666655E-005    -4.2123882850176296E-016
   6.6266666666666660E-005    -6.0927000486663018E-016
   6.6466666666666665E-005    -7.7482603547883140E-016
   6.6666666666666656E-005    -8.8811981560808708E-016
   6.6866666666666661E-005    -9.1699850397221599E-016
   6.7066666666666666E-005    -8.3061781931342642E-016
   6.7266666666666657E-005    -6.0409818050937304E-016
   6.7466666666666662E-005    -2.2381958893578230E-016
   6.7666666666666667E-005     3.0718136876121873E-016
   6.7866666666666658E-005     9.6442949028225982E-016
   6.8066666666666663E-005     1.6986923884665037E-015
   6.8266666666666655E-005     2.4350282939100340E-015
   6.8466666666666659E-005     3.0750453300641993E-015
   6.8666666666666664E-005     3.5030279966639846E-015
   6.8866666666666656E-005     3.5962507487728983E-015
   6.9066666666666660E-005     3.2393263113929868E-015
   6.9266666666666665E-005     2.3418392113607736E-015
   6.9466666666666657E-005     8.5786745156174850E-016
   6.9666666666666661E-005    -1.1946653273237138E-015
   6.9866666666666666E-005    -3.7174251646247304E-015
   7.0066666666666658E-005    -6.5208738270748114E-015
   7.0266666666666662E-005    -9.3223184095716886E-015
   7.0466666666666654E-005    -1.1755565393193647E-014
   7.0666666666666659E-005    -1.3394209074930451E-014
   7.0866666666666664E-005    -1.3789368579549422E-014
   7.1066666666666655E-005    -1.2521069725208826E-014
   7.1266666666666660E-005    -9.2604883925539137E-015
   7.1466666666666665E-005    -3.8381375240038353E-015
   7.1666666666666656E-005     3.6889906921018772E-015
   7.1866666666666661E-005     1.2980092125918982E-014
   7.2066666666666666E-005     2.3372901785658970E-014
   7.2266666666666657E-005     3.3875825728542017E-014
   7.2466666666666662E-005     4.3198934419853494E-014
   7.2666666666666667E-005     4.9830606085659798E-014
   7.2866666666666658E-005     5.2162741899335063E-014
   7.3066666666666663E-005     4.8662374856674878E-014
   7.3266666666666654E-005     3.8081398521768242E-014
   7.3466666666666659E-005     1.9689202931895064E-014
   7.3666666666666664E-005    -6.4936705169407923E-015
   7.3866666666666655E-005    -3.9488665836600115E-014
   7.4066666666666660E-005    -7.7211078242794828E-014
   7.4266666666666665E-005    -1.1641414828650332E-013
   7.4466666666666656E-005    -1.5275676773854330E-013
   7.4666666666666661E-005    -1.8102010233660148E-013
   7.4866666666666666E-005    -1.9548756060097650E-013
   7.5066666666666657E-005    -1.9048745057443500E-013
   7.5266666666666662E-005    -1.6107864282861872E-013
   7.5466666666666653E-005    -1.0383763347863312E-013