  -3.3333333333333335E-005     0.0000000000000000     
  -3.3133333333333337E-005     0.0000000000000000     
  -3.2933333333333332E-005     0.0000000000000000     
  -3.2733333333333334E-005     0.0000000000000000     
  -3.2533333333333336E-005     0.0000000000000000     
  -3.2333333333333338E-005     0.0000000000000000     
  -3.2133333333333333E-005     0.0000000000000000     
  -3.1933333333333335E-005     0.0000000000000000     
  -3.1733333333333337E-005     0.0000000000000000     
  -3.1533333333333332E-005     0.0000000000000000     
  -3.1333333333333334E-005     0.0000000000000000     
  -3.1133333333333336E-005     0.0000000000000000     
  -3.0933333333333338E-005     0.0000000000000000     
  -3.0733333333333333E-005     0.0000000000000000     
  -3.0533333333333335E-005     0.0000000000000000     
  -3.0333333333333337E-005     0.0000000000000000     
  -3.0133333333333335E-005     0.0000000000000000     
  -2.9933333333333334E-005     0.0000000000000000     
  -2.9733333333333336E-005     0.0000000000000000     
  -2.9533333333333334E-005     0.0000000000000000     
  -2.9333333333333336E-005     0.0000000000000000     
  -2.9133333333333334E-005     0.0000000000000000     
  -2.8933333333333336E-005     0.0000000000000000     
  -2.8733333333333335E-005     0.0000000000000000     
  -2.8533333333333333E-005     0.0000000000000000     
  -2.8333333333333335E-005     0.0000000000000000     
  -2.8133333333333337E-005     0.0000000000000000     
  -2.7933333333333336E-005     0.0000000000000000     
  -2.7733333333333334E-005     0.0000000000000000     
  -2.7533333333333336E-005     0.0000000000000000     
  -2.7333333333333335E-005     0.0000000000000000     
  -2.7133333333333333E-005     0.0000000000000000     
  -2.6933333333333335E-005     0.0000000000000000     
  -2.6733333333333337E-005     0.0000000000000000     
  -2.6533333333333336E-005     0.0000000000000000     
  -2.6333333333333334E-005     0.0000000000000000     
  -2.6133333333333336E-005     0.0000000000000000     
  -2.5933333333333335E-005     0.0000000000000000     
  -2.5733333333333333E-005     0.0000000000000000     
  -2.5533333333333335E-005     0.0000000000000000     
  -2.5333333333333337E-005     0.0000000000000000     
  -2.5133333333333336E-005     0.0000000000000000     
  -2.4933333333333334E-005     0.0000000000000000     
  -2.4733333333333336E-005     0.0000000000000000     
  -2.4533333333333334E-005     0.0000000000000000     
  -2.4333333333333333E-005     0.0000000000000000     
  -2.4133333333333335E-005     0.0000000000000000     
  -2.3933333333333337E-005     0.0000000000000000     
  -2.3733333333333335E-005     0.0000000000000000     
  -2.3533333333333334E-005     0.0000000000000000     
  -2.3333333333333336E-005     0.0000000000000000     
  -2.3133333333333338E-005     0.0000000000000000     
  -2.2933333333333336E-005     0.0000000000000000     
  -2.2733333333333335E-005     0.0000000000000000     
  -2.2533333333333337E-005     0.0000000000000000     
  -2.2333333333333335E-005     0.0000000000000000     
  -2.2133333333333334E-005     0.0000000000000000     
  -2.1933333333333336E-005     0.0000000000000000     
  -2.1733333333333338E-005     0.0000000000000000     
  -2.1533333333333336E-005     0.0000000000000000     
  -2.1333333333333335E-005     0.0000000000000000     
  -2.1133333333333337E-005     0.0000000000000000     
  -2.0933333333333335E-005     0.0000000000000000     
  -2.0733333333333334E-005     0.0000000000000000     
  -2.0533333333333336E-005     0.0000000000000000     
  -2.0333333333333337E-005     0.0000000000000000     
  -2.0133333333333336E-005     0.0000000000000000     
  -1.9933333333333334E-005     0.0000000000000000     
  -1.9733333333333336E-005     0.0000000000000000     
  -1.9533333333333335E-005     0.0000000000000000     
  -1.9333333333333333E-005     0.0000000000000000     
  -1.9133333333333335E-005     0.0000000000000000     
  -1.8933333333333337E-005     0.0000000000000000     
  -1.8733333333333336E-005     0.0000000000000000     
  -1.8533333333333334E-005     0.0000000000000000     
  -1.8333333333333336E-005     0.0000000000000000     
  -1.8133333333333335E-005     0.0000000000000000     
  -1.7933333333333337E-005     0.0000000000000000     
  -1.7733333333333335E-005     0.0000000000000000     
  -1.7533333333333337E-005     0.0000000000000000     
  -1.7333333333333336E-005     0.0000000000000000     
  -1.7133333333333334E-005     0.0000000000000000     
  -1.6933333333333336E-005     0.0000000000000000     
  -1.6733333333333335E-005     0.0000000000000000     
  -1.6533333333333337E-005     0.0000000000000000     
  -1.6333333333333335E-005     0.0000000000000000     
  -1.6133333333333337E-005     0.0000000000000000     
  -1.5933333333333336E-005     0.0000000000000000     
  -1.5733333333333334E-005     0.0000000000000000     
  -1.5533333333333336E-005     0.0000000000000000     
  -1.5333333333333334E-005     0.0000000000000000     
  -1.5133333333333336E-005     0.0000000000000000     
  -1.4933333333333335E-005     0.0000000000000000     
  -1.4733333333333337E-005     0.0000000000000000     
  -1.4533333333333335E-005     0.0000000000000000     
  -1.4333333333333337E-005     0.0000000000000000     
  -1.4133333333333336E-005     0.0000000000000000     
  -1.3933333333333334E-005     0.0000000000000000     
  -1.3733333333333336E-005     0.0000000000000000     
  -1.3533333333333335E-005     0.0000000000000000     
  -1.3333333333333337E-005     0.0000000000000000     
  -1.3133333333333335E-005     0.0000000000000000     
  -1.2933333333333337E-005     0.0000000000000000     
  -1.2733333333333336E-005     0.0000000000000000     
  -1.2533333333333338E-005     0.0000000000000000     
  -1.2333333333333336E-005     0.0000000000000000     
  -1.2133333333333335E-005     0.0000000000000000     
  -1.1933333333333337E-005     0.0000000000000000     
  -1.1733333333333335E-005     0.0000000000000000     
  -1.1533333333333337E-005     0.0000000000000000     
  -1.1333333333333336E-005     0.0000000000000000     
  -1.1133333333333337E-005     0.0000000000000000     
  -1.0933333333333336E-005     0.0000000000000000     
  -1.0733333333333334E-005     0.0000000000000000     
  -1.0533333333333336E-005     0.0000000000000000     
  -1.0333333333333335E-005     0.0000000000000000     
  -1.0133333333333337E-005     0.0000000000000000     
  -9.9333333333333354E-006     0.0000000000000000     
  -9.7333333333333373E-006     0.0000000000000000     
  -9.5333333333333358E-006     0.0000000000000000     
  -9.3333333333333343E-006     0.0000000000000000     
  -9.1333333333333362E-006     0.0000000000000000     
  -8.9333333333333348E-006     0.0000000000000000     
  -8.7333333333333367E-006     0.0000000000000000     
  -8.5333333333333352E-006     0.0000000000000000     
  -8.3333333333333371E-006     0.0000000000000000     
  -8.1333333333333356E-006     0.0000000000000000     
  -7.9333333333333376E-006     0.0000000000000000     
  -7.7333333333333361E-006     0.0000000000000000     
  -7.5333333333333346E-006     0.0000000000000000     
  -7.3333333333333365E-006     0.0000000000000000     
  -7.1333333333333351E-006     0.0000000000000000     
  -6.9333333333333370E-006     0.0000000000000000     
  -6.7333333333333355E-006     0.0000000000000000     
  -6.5333333333333374E-006     0.0000000000000000     
  -6.3333333333333359E-006     0.0000000000000000     
  -6.1333333333333379E-006     0.0000000000000000     
  -5.9333333333333364E-006     0.0000000000000000     
  -5.7333333333333349E-006     0.0000000000000000     
  -5.5333333333333368E-006     0.0000000000000000     
  -5.3333333333333354E-006     0.0000000000000000     
  -5.1333333333333373E-006     0.0000000000000000     
  -4.9333333333333358E-006     0.0000000000000000     
  -4.7333333333333377E-006     0.0000000000000000     
  -4.5333333333333362E-006     0.0000000000000000     
  -4.3333333333333348E-006     0.0000000000000000     
  -4.1333333333333367E-006     0.0000000000000000     
  -3.9333333333333352E-006     0.0000000000000000     
  -3.7333333333333371E-006     0.0000000000000000     
  -3.5333333333333356E-006     0.0000000000000000     
  -3.3333333333333376E-006     0.0000000000000000     
  -3.1333333333333361E-006     0.0000000000000000     
  -2.9333333333333346E-006     0.0000000000000000     
  -2.7333333333333365E-006     0.0000000000000000     
  -2.5333333333333384E-006     0.0000000000000000     
  -2.3333333333333336E-006     0.0000000000000000     
  -2.1333333333333355E-006     0.0000000000000000     
  -1.9333333333333374E-006     0.0000000000000000     
  -1.7333333333333393E-006     0.0000000000000000     
  -1.5333333333333345E-006     0.0000000000000000     
  -1.3333333333333364E-006     0.0000000000000000     
  -1.1333333333333383E-006     0.0000000000000000     
  -9.3333333333333343E-007     0.0000000000000000     
  -7.3333333333333535E-007     0.0000000000000000     
  -5.3333333333333726E-007     0.0000000000000000     
  -3.3333333333333918E-007     0.0000000000000000     
  -1.3333333333333432E-007     0.0000000000000000     
   6.6666666666663770E-008     0.0000000000000000     
   2.6666666666666185E-007     1.8792286816837536E-038
   4.6666666666666672E-007     4.7365928384742874E-038
   6.6666666666666480E-007     7.8601577408969066E-038
   8.6666666666666289E-007     9.9174241950700568E-038
   1.0666666666666610E-006     8.2520319774841132E-038
   1.2666666666666658E-006     1.6074258250509904E-038
   1.4666666666666639E-006    -9.8216594580180988E-038
   1.6666666666666620E-006    -2.4884224498316958E-037
   1.8666666666666669E-006    -4.0500440319793009E-037
   2.0666666666666649E-006    -5.3910857655071337E-037
   2.2666666666666630E-006    -5.9654513253111154E-037
   2.4666666666666611E-006    -5.3323240520157682E-037
   2.6666666666666660E-006    -3.0077304324529698E-037
   2.8666666666666641E-006     1.0970983158720656E-037
   3.0666666666666622E-006     6.8198559575498373E-037
   3.2666666666666602E-006     1.3618933237262912E-036
   3.4666666666666651E-006     2.0470358095032567E-036
   3.6666666666666632E-006     2.6092383676862042E-036
   3.8666666666666613E-006     2.8663799093230208E-036
   4.0666666666666661E-006     2.6182882894804454E-036
   4.2666666666666642E-006     1.7069822403292694E-036
   4.4666666666666623E-006     0.0000000000000000     
   4.6666666666666604E-006    -2.5179294907014940E-036
   4.8666666666666652E-006    -5.7008398090830024E-036
   5.0666666666666633E-006    -9.1923572138525235E-036
   5.2666666666666614E-006    -1.2400440861421121E-035
   5.4666666666666663E-006    -1.4511286915260686E-035
   5.6666666666666644E-006    -1.4551562520044475E-035
   5.8666666666666624E-006    -1.1519946518061968E-035
   6.0666666666666605E-006    -4.5824326985599262E-036
   6.2666666666666654E-006     6.6796239620645002E-036
   6.4666666666666635E-006     2.1993667190651413E-035
   6.6666666666666616E-006     4.0139553366090212E-035
   6.8666666666666664E-006     5.8765683224179833E-035
   7.0666666666666645E-006     7.4347647185765107E-035
   7.2666666666666626E-006     8.2347178968754777E-035
   7.4666666666666607E-006     7.7627592109077332E-035
   7.6666666666666655E-006     5.5153827598597098E-035
   7.8666666666666636E-006     1.0970621735820737E-035
   8.0666666666666617E-006    -5.6595570271936932E-035
   8.2666666666666598E-006    -1.4562360365491176E-034
   8.4666666666666647E-006    -2.4934326734365716E-034
   8.6666666666666627E-006    -3.5517949815066685E-034
   8.8666666666666608E-006    -4.4438452723333068E-034
   9.0666666666666657E-006    -4.9258466289834084E-034
   9.2666666666666638E-006    -4.7156907387529421E-034
   9.4666666666666619E-006    -3.5259191825204525E-034
   9.6666666666666599E-006    -1.1132280477172463E-034
   9.8666666666666648E-006     2.6565178209337787E-034
   1.0066666666666663E-005     7.7322962288884255E-034
   1.0266666666666661E-005     1.3799856439787366E-033
   1.0466666666666666E-005     2.0215659607182294E-033
   1.0666666666666664E-005     2.5971726672082790E-033
   1.0866666666666662E-005     2.9713565799750065E-033
   1.1066666666666660E-005     2.9833345000679010E-033
   1.1266666666666665E-005     2.4655611972833463E-033
   1.1466666666666663E-005     1.2721484554636885E-033
   1.1666666666666661E-005    -6.8409803924423108E-034
   1.1866666666666666E-005    -3.3896522039532866E-033
   1.2066666666666664E-005    -6.6895583529571685E-033
   1.2266666666666662E-005    -1.0256767141892238E-032
   1.2466666666666660E-005    -1.3581738136533513E-032
   1.2666666666666665E-005    -1.5992342034180041E-032
   1.2866666666666663E-005    -1.6711585885145920E-032
   1.3066666666666661E-005    -1.4955589812217369E-032
   1.3266666666666666E-005    -1.0066909375871085E-032
   1.3466666666666664E-005    -1.6694565461629982E-033
   1.3666666666666662E-005     1.0176945932683620E-032
   1.3866666666666660E-005     2.4850435467802872E-032
   1.4066666666666665E-005     4.1098662051005785E-032
   1.4266666666666663E-005     5.7052447870478855E-032
   1.4466666666666661E-005     7.0334705311253374E-032
   1.4666666666666666E-005     7.8261422244625060E-032
   1.4866666666666664E-005     7.8114068150277732E-032
   1.5066666666666662E-005     6.7448467011905379E-032
   1.5266666666666661E-005     4.4399899814703958E-032
   1.5466666666666665E-005     7.9522192833127750E-033
   1.5666666666666663E-005    -4.1840783960774543E-032
   1.5866666666666662E-005    -1.0366254448969353E-031
   1.6066666666666660E-005    -1.7472207137260743E-031
   1.6266666666666665E-005    -2.5046255781981778E-031
   1.6466666666666663E-005    -3.2414926755704547E-031
   1.6666666666666661E-005    -3.8635882661103660E-031
   1.6866666666666666E-005    -4.2450199611301569E-031
   1.7066666666666664E-005    -4.2265148588617722E-031
   1.7266666666666662E-005    -3.6208030734847517E-031
   1.7466666666666660E-005    -2.2298953861934872E-031
   1.7666666666666665E-005     1.2145375140640867E-032
   1.7866666666666663E-005     3.5341437491511714E-031
   1.8066666666666661E-005     7.9674395841672220E-031
   1.8266666666666666E-005     1.3164712942768564E-030
   1.8466666666666664E-005     1.8588056434524567E-030
   1.8666666666666662E-005     2.3383915399438750E-030
   1.8866666666666660E-005     2.6405050609300669E-030
   1.9066666666666665E-005     2.6311733284964031E-030
   1.9266666666666663E-005     2.1765244632028769E-030
   1.9466666666666661E-005     1.1708841560179106E-030
   1.9666666666666666E-005    -4.2931254217454679E-031
   1.9866666666666664E-005    -2.5714215400508853E-030
   2.0066666666666662E-005    -5.0802484761182240E-030
   2.0266666666666660E-005    -7.6485591879190932E-030
   2.0466666666666665E-005    -9.8527431272363666E-030
   2.0666666666666663E-005    -1.1198674002656695E-029
   2.0866666666666661E-005    -1.1197096395198343E-029
   2.1066666666666659E-005    -9.4603296348527757E-030
   2.1266666666666664E-005    -5.8041965144167717E-030
   2.1466666666666662E-005    -3.3287874721500896E-031
   2.1666666666666660E-005     6.5177742475128170E-030
   2.1866666666666665E-005     1.3999145412982254E-029
   2.2066666666666663E-005     2.1140860777165773E-029
   2.2266666666666661E-005     2.6906983687836248E-029
   2.2466666666666659E-005     3.0390325909548836E-029
   2.2666666666666664E-005     3.0999473476834214E-029
   2.2866666666666662E-005     2.8582732323182044E-029
   2.3066666666666660E-005     2.3436727257316109E-029
   2.3266666666666665E-005     1.6169105727651043E-029
   2.3466666666666663E-005     7.4241319256691408E-030
   2.3666666666666661E-005    -2.4686013313031040E-030
   2.3866666666666660E-005    -1.3810781941257337E-029
   2.4066666666666664E-005    -2.7671322088187241E-029
   2.4266666666666662E-005    -4.5696464558837492E-029
   2.4466666666666661E-005    -6.9499469085022366E-029
   2.4666666666666665E-005    -9.9640820401010542E-029
   2.4866666666666663E-005    -1.3435938497107803E-028
   2.5066666666666662E-005    -1.6838078095687057E-028
   2.5266666666666660E-005    -1.9226396134478718E-028
   2.5466666666666665E-005    -1.9279620412198074E-028
   2.5666666666666663E-005    -1.5485625088602717E-028
   2.5866666666666661E-005    -6.4902791901442588E-029
   2.6066666666666666E-005     8.4183517315946254E-029
   2.6266666666666664E-005     2.8771440957664181E-028
   2.6466666666666662E-005     5.2460583903683773E-028
   2.6666666666666660E-005     7.5529237962457977E-028
   2.6866666666666665E-005     9.2386878691555148E-028
   2.7066666666666663E-005     9.6570682235894481E-028
   2.7266666666666661E-005     8.2075844584944486E-028
   2.7466666666666666E-005     4.5122737852494934E-028
   2.7666666666666664E-005    -1.3949567161388866E-028
   2.7866666666666662E-005    -8.9136496354062532E-028
   2.8066666666666667E-005    -1.6813634192832894E-027
   2.8266666666666658E-005    -2.3317565096646699E-027
   2.8466666666666663E-005    -2.6364428639126083E-027
   2.8666666666666668E-005    -2.4052967964401354E-027
   2.8866666666666659E-005    -1.5213782484364889E-027
   2.9066666666666664E-005    -3.0070988669176204E-031
   2.9266666666666669E-005     1.9637286306617686E-027
   2.9466666666666660E-005     3.9830511550982192E-027
   2.9666666666666665E-005     5.5091202948037549E-027
   2.9866666666666656E-005     5.9220127118611568E-027
   3.0066666666666661E-005     4.6745501386546342E-027
   3.0266666666666666E-005     1.4729081769331009E-027
   3.0466666666666657E-005    -3.5412582332953424E-027
   3.0666666666666662E-005    -9.6559625472083754E-027
   3.0866666666666667E-005    -1.5556007331751874E-026
   3.1066666666666658E-005    -1.9440293717814004E-026
   3.1266666666666663E-005    -1.9315672183716551E-026
   3.1466666666666668E-005    -1.3456937826108181E-026
   3.1666666666666659E-005    -9.7471353004036894E-028
   3.1866666666666664E-005     1.7616918772593411E-026
   3.2066666666666656E-005     3.9981239450661804E-026
   3.2266666666666660E-005     6.1852223158639695E-026
   3.2466666666666665E-005     7.7383661787277009E-026
   3.2666666666666657E-005     8.0032311580363133E-026
   3.2866666666666661E-005     6.3944812295206513E-026
   3.3066666666666666E-005     2.5679591832433292E-026
   3.3266666666666658E-005    -3.4049621740981999E-026
   3.3466666666666662E-005    -1.0903721713626334E-025
   3.3666666666666667E-005    -1.8713147619879728E-025
   3.3866666666666659E-005    -2.5108168109784808E-025
   3.4066666666666664E-005    -2.8092515195897404E-025
   3.4266666666666668E-005    -2.5785163608264823E-025
   3.4466666666666660E-005    -1.6909705587360356E-025
   3.4666666666666665E-005    -1.3014500873331901E-026
   3.4866666666666656E-005     1.9685417452969461E-025
   3.5066666666666661E-005     4.3002592741395416E-025
   3.5266666666666666E-005     6.4082558502614582E-025
   3.5466666666666657E-005     7.7434744228675563E-025
   3.5666666666666662E-005     7.7654259566695282E-025
   3.5866666666666667E-005     6.0730939965744042E-025
   3.6066666666666658E-005     2.5437589028234116E-025
   3.6266666666666663E-005    -2.5513600706832818E-025
   3.6466666666666668E-005    -8.4899951911530934E-025
   3.6666666666666659E-005    -1.4132576237312183E-024
   3.6866666666666664E-005    -1.8067320755322094E-024
   3.7066666666666669E-005    -1.8866570958664867E-024
   3.7266666666666660E-005    -1.5427232075209882E-024
   3.7466666666666665E-005    -7.3392344849006271E-025
   3.7666666666666656E-005     4.7986561706394535E-025
   3.7866666666666661E-005     1.9209011533316782E-024
   3.8066666666666666E-005     3.2999495280851478E-024
   3.8266666666666657E-005     4.2519054533083408E-024
   3.8466666666666662E-005     4.4013516019283880E-024
   3.8666666666666667E-005     3.4517610761295002E-024
   3.8866666666666658E-005     1.2843716554915594E-024
   3.9066666666666663E-005    -1.9540246338810033E-024
   3.9266666666666668E-005    -5.7990865138047329E-024
   3.9466666666666659E-005    -9.4767982580035193E-024
   3.9666666666666664E-005    -1.1988770405081503E-023
   3.9866666666666655E-005    -1.2279834835559089E-023
   4.0066666666666660E-005    -9.4749499569025864E-024
   4.0266666666666665E-005    -3.1520937230500262E-024
   4.0466666666666656E-005     6.4012469197261826E-024
   4.0666666666666661E-005     1.8013249073434625E-023
   4.0866666666666666E-005     2.9601812986357594E-023
   4.1066666666666657E-005     3.8351911789610612E-023
   4.1266666666666662E-005     4.1121504609089337E-023
   4.1466666666666667E-005     3.5057537141542661E-023
   4.1666666666666658E-005     1.8350327760513753E-023
   4.1866666666666663E-005    -8.9987580157704488E-024
   4.2066666666666668E-005    -4.4563500376073106E-023
   4.2266666666666660E-005    -8.3218167514776680E-023
   4.2466666666666664E-005    -1.1737009549256924E-022
   4.2666666666666656E-005    -1.3780916600248357E-022
   4.2866666666666661E-005    -1.3518381166635907E-022
   4.3066666666666665E-005    -1.0198169115111434E-022
   4.3266666666666657E-005    -3.4748552946742074E-023
   4.3466666666666662E-005     6.3851682778698774E-023
   4.3666666666666666E-005     1.8361819255092289E-022
   4.3866666666666658E-005     3.0652774505060097E-022
   4.4066666666666663E-005     4.0798520342031612E-022
   4.4266666666666667E-005     4.5981422317400148E-022
   4.4466666666666659E-005     4.3489778011444442E-022
   4.4666666666666664E-005     3.1301654882548900E-022
   4.4866666666666655E-005     8.7064003267248432E-023
   4.5066666666666660E-005    -2.3149240646213288E-022
   4.5266666666666665E-005    -6.0920418280949159E-022
   4.5466666666666656E-005    -9.9054918742903411E-022
   4.5666666666666661E-005    -1.3021179934777125E-021
   4.5866666666666666E-005    -1.4614805181068405E-021
   4.6066666666666657E-005    -1.3903487409564446E-021
   4.6266666666666662E-005    -1.0307248004811091E-021
   4.6466666666666667E-005    -3.6181200081270333E-022
   4.6666666666666658E-005     5.8527042062412473E-022
   4.6866666666666663E-005     1.7182994995685984E-021
   4.7066666666666668E-005     2.8834744710742111E-021
   4.7266666666666659E-005     3.8760774736472062E-021
   4.7466666666666664E-005     4.4632949292031612E-021
   4.7666666666666655E-005     4.4183149639116730E-021
   4.7866666666666660E-005     3.5625776370767426E-021
   4.8066666666666665E-005     1.8108494182755965E-021
   4.8266666666666656E-005    -7.8803847039566459E-022
   4.8466666666666661E-005    -4.0229416142601490E-021
   4.8666666666666666E-005    -7.5126748508503737E-021
   4.8866666666666657E-005    -1.0725299754957850E-020
   4.9066666666666662E-005    -1.3027961361771640E-020
   4.9266666666666667E-005    -1.3766602144832383E-020
   4.9466666666666658E-005    -1.2369812360895696E-020
   4.9666666666666663E-005    -8.4658324857558132E-021
   4.9866666666666655E-005    -1.9970280639982496E-021
   5.0066666666666659E-005     6.6870936695598997E-021
   5.0266666666666664E-005     1.6778308594001136E-020
   5.0466666666666656E-005     2.7017757676944856E-020
   5.0666666666666660E-005     3.5776999365467611E-020
   5.0866666666666665E-005     4.1217479345328247E-020
   5.1066666666666657E-005     4.1523390769130817E-020
   5.1266666666666661E-005     3.5190977444390737E-020
   5.1466666666666666E-005     2.1345075820678368E-020
   5.1666666666666658E-005     4.2952807335236465E-023
   5.1866666666666662E-005    -2.7482284214378737E-020
   5.2066666666666667E-005    -5.8689388576477900E-020
   5.2266666666666659E-005    -8.9755423101219826E-020
   5.2466666666666664E-005    -1.1579824179752010E-019
   5.2666666666666655E-005    -1.3131481884521657E-019
   5.2866666666666660E-005    -1.3083051752126385E-019
   5.3066666666666665E-005    -1.0972413823726958E-019
   5.3266666666666656E-005    -6.5160041229916637E-020
   5.3466666666666661E-005     2.9751449045351964E-021
   5.3666666666666666E-005     9.1262933918203577E-020
   5.3866666666666657E-005     1.9222281568448680E-019
   5.4066666666666662E-005     2.9421904489837386E-019
   5.4266666666666667E-005     3.8194783026239902E-019
   5.4466666666666658E-005     4.3760992520504037E-019
   5.4666666666666663E-005     4.4280766968038217E-019
   5.4866666666666668E-005     3.8111351521706272E-019
   5.5066666666666659E-005     2.4114351788179169E-019
   5.5266666666666664E-005     1.9840298577125164E-020
   5.5466666666666655E-005    -2.7445475323354981E-019
   5.5666666666666660E-005    -6.1966607077579104E-019
   5.5866666666666665E-005    -9.7897290784745386E-019
   5.6066666666666656E-005    -1.3017022835211164E-018
   5.6266666666666661E-005    -1.5266070052075733E-018
   5.6466666666666666E-005    -1.5878048254539668E-018
   5.6666666666666657E-005    -1.4233370212479311E-018
   5.6866666666666662E-005    -9.8588958533446914E-019
   5.7066666666666667E-005    -2.5473639594211659E-019
   5.7266666666666658E-005     7.5253014720953116E-019
   5.7466666666666663E-005     1.9703529044977437E-018
   5.7666666666666654E-005     3.2798009072748066E-018
   5.7866666666666659E-005     4.5095963801466883E-018
   5.8066666666666664E-005     5.4454830008499035E-018
   5.8266666666666655E-005     5.8491690600620137E-018
   5.8466666666666660E-005     5.4869905103975081E-018
   5.8666666666666665E-005     4.1670000907134569E-018
   5.8866666666666656E-005     1.7814730358613134E-018
   5.9066666666666661E-005    -1.6499349816482841E-018
   5.9266666666666666E-005    -5.9427339406897243E-018
   5.9466666666666657E-005    -1.0723308072063884E-017
   5.9666666666666662E-005    -1.5425545304297128E-017
   5.9866666666666667E-005    -1.9315352208660390E-017
   6.0066666666666659E-005    -2.1547992091279817E-017
   6.0266666666666663E-005    -2.1259701449831611E-017
   6.0466666666666655E-005    -1.7690441922083673E-017
   6.0666666666666660E-005    -1.0329039050535384E-017
   6.0866666666666664E-005     9.3394171228794988E-019
   6.1066666666666656E-005     1.5665712232068224E-017
   6.1266666666666661E-005     3.2787447630686989E-017
   6.1466666666666665E-005     5.0533254405530061E-017
   6.1666666666666657E-005     6.6496599456884666E-017
   6.1866666666666662E-005     7.7783472297725828E-017
   6.2066666666666666E-005     8.1282002920016807E-017
   6.2266666666666658E-005     7.4044377700969728E-017
   6.2466666666666663E-005     5.3759824586025856E-017
   6.2666666666666668E-005     1.9278526127789529E-017
   6.2866666666666659E-005    -2.8872553992706219E-017
   6.3066666666666664E-005    -8.8056532727487298E-017
   6.3266666666666655E-005    -1.5326110915478864E-016
   6.3466666666666660E-005    -2.1708657697761707E-016
   6.3666666666666665E-005    -2.7006319387245321E-016
   6.3866666666666656E-005    -3.0135023513364252E-016
   6.4066666666666661E-005    -2.9983256385039962E-016
   6.4266666666666666E-005    -2.5557996279580914E-016
   6.4466666666666657E-005    -1.6157677570511893E-016
   6.4666666666666662E-005    -1.5565659773896260E-017
   6.4866666666666667E-005     1.7821143076311952E-016
   6.5066666666666658E-005     4.0763987335227278E-016
   6.5266666666666663E-005     6.5201944007719950E-016
   6.5466666666666654E-005     8.8230112277692366E-016
   6.5666666666666659E-005     1.0625211995302281E-015
   6.5866666666666664E-005     1.1525923538006455E-015
   6.6066666666666655E-005     1.1124796262757604E-015
   6.6266666666666660E-005     9.0761263776280949E-016
   6.6466666666666665E-005     5.1518163802518170E-016
   6.6666666666666656E-005    -6.9259151092240264E-017
   6.6866666666666661E-005    -8.2566188247860071E-016
   6.7066666666666666E-005    -1.7047814965660780E-015
   6.7266666666666657E-005    -2.6259425321993385E-015
   6.7466666666666662E-005    -3.4783035284501052E-015
   6.7666666666666667E-005    -4.1264933737540904E-015
   6.7866666666666658E-005    -4.4211769831368087E-015
   6.8066666666666663E-005    -4.2146271519159003E-015
   6.8266666666666655E-005    -3.3807503203983538E-015
   6.8466666666666659E-005    -1.8382605482844365E-015
   6.8666666666666664E-005     4.2509412543097051E-016
   6.8866666666666656E-005     3.3301178671850439E-015
   6.9066666666666660E-005     6.6890310429284713E-015
   6.9266666666666665E-005     1.0197431346060416E-014
   6.9466666666666657E-005     1.3439089962673668E-014
   6.9666666666666661E-005     1.5906784082194564E-014
   6.9866666666666666E-005     1.7041194979661514E-014
   7.0066666666666658E-005     1.6288189465816019E-014
   7.0266666666666662E-005     1.3172445684943909E-014
   7.0466666666666654E-005     7.3827569559603741E-015
   7.0666666666666659E-005    -1.1386304979728160E-015
   7.0866666666666664E-005    -1.2112974333419388E-014
   7.1066666666666655E-005    -2.4860838824321448E-014
   7.1266666666666660E-005    -3.8270534202626549E-014
   7.1466666666666665E-005    -5.0812788221846206E-014
   7.1666666666666656E-005    -6.0613230472121582E-014
   7.1866666666666661E-005    -6.5590280873707024E-014
   7.2066666666666666E-005    -6.3659736932852179E-014
   7.2266666666666657E-005    -5.2999471537818962E-014
   7.2466666666666662E-005    -3.2357908805744420E-014
   7.2666666666666667E-005    -1.3798192121760970E-015
   7.2866666666666658E-005     3.9086592849065654E-014
   7.3066666666666663E-005     8.6745416622360794E-014
   7.3266666666666654E-005     1.3772010333361340E-013
   7.3466666666666659E-005     1.8658017568017743E-013
   7.3666666666666664E-005     2.2656964466464397E-013
   7.3866666666666655E-005     2.5006578296786486E-013
   7.4066666666666660E-005     2.4927642957618679E-013
   7.4266666666666665E-005     2.1715703508399381E-013
   7.4466666666666656E-005     1.4849602938352829E-013
   7.4666666666666661E-005     4.1082788619596286E-014
   7.4866666666666666E-005    -1.0316161309529767E-013
   7.5066666666666657E-005    -2.7723935885730355E-013
   7.5266666666666662E-005    -4.6848256610859673E-013
   7.5466666666666653E-005    -6.5848167847201711E-013