  -3.3333333333333335E-005     0.0000000000000000     
  -3.3133333333333337E-005     0.0000000000000000     
  -3.2933333333333332E-005     0.0000000000000000     
  -3.2733333333333334E-005     0.0000000000000000     
  -3.2533333333333336E-005     0.0000000000000000     
  -3.2333333333333338E-005     0.0000000000000000     
  -3.2133333333333333E-005     0.0000000000000000     
  -3.1933333333333335E-005     0.0000000000000000     
  -3.1733333333333337E-005     0.0000000000000000     
  -3.1533333333333332E-005     0.0000000000000000     
  -3.1333333333333334E-005     0.0000000000000000     
  -3.1133333333333336E-005     0.0000000000000000     
  -3.0933333333333338E-005     0.0000000000000000     
  -3.0733333333333333E-005     0.0000000000000000     
  -3.0533333333333335E-005     0.0000000000000000     
  -3.0333333333333337E-005     0.0000000000000000     
  -3.0133333333333335E-005     0.0000000000000000     
  -2.9933333333333334E-005     0.0000000000000000     
  -2.9733333333333336E-005     0.0000000000000000     
  -2.9533333333333334E-005     0.0000000000000000     
  -2.9333333333333336E-005     0.0000000000000000     
  -2.9133333333333334E-005     0.0000000000000000     
  -2.8933333333333336E-005     0.0000000000000000     
  -2.8733333333333335E-005     0.0000000000000000     
  -2.8533333333333333E-005     0.0000000000000000     
  -2.8333333333333335E-005     0.0000000000000000     
  -2.8133333333333337E-005     0.0000000000000000     
  -2.7933333333333336E-005     0.0000000000000000     
  -2.7733333333333334E-005     0.0000000000000000     
  -2.7533333333333336E-005     0.0000000000000000     
  -2.7333333333333335E-005     0.0000000000000000     
  -2.7133333333333333E-005     0.0000000000000000     
  -2.6933333333333335E-005     0.0000000000000000     
  -2.6733333333333337E-005     0.0000000000000000     
  -2.6533333333333336E-005     0.0000000000000000     
  -2.6333333333333334E-005     0.0000000000000000     
  -2.6133333333333336E-005     0.0000000000000000     
  -2.5933333333333335E-005     0.0000000000000000     
  -2.5733333333333333E-005     0.0000000000000000     
  -2.5533333333333335E-005     0.0000000000000000     
  -2.5333333333333337E-005     0.0000000000000000     
  -2.5133333333333336E-005     0.0000000000000000     
  -2.4933333333333334E-005     0.0000000000000000     
  -2.4733333333333336E-005     0.0000000000000000     
  -2.4533333333333334E-005     0.0000000000000000     
  -2.4333333333333333E-005     0.0000000000000000     
  -2.4133333333333335E-005     0.0000000000000000     
  -2.3933333333333337E-005     0.0000000000000000     
  -2.3733333333333335E-005     0.0000000000000000     
  -2.3533333333333334E-005     0.0000000000000000     
  -2.3333333333333336E-005     0.0000000000000000     
  -2.3133333333333338E-005     0.0000000000000000     
  -2.2933333333333336E-005     0.0000000000000000     
  -2.2733333333333335E-005     0.0000000000000000     
  -2.2533333333333337E-005     0.0000000000000000     
  -2.2333333333333335E-005     0.0000000000000000     
  -2.2133333333333334E-005     0.0000000000000000     
  -2.1933333333333336E-005     0.0000000000000000     
  -2.1733333333333338E-005     0.0000000000000000     
  -2.1533333333333336E-005     0.0000000000000000     
  -2.1333333333333335E-005     0.0000000000000000     
  -2.1133333333333337E-005     0.0000000000000000     
  -2.0933333333333335E-005     0.0000000000000000     
  -2.0733333333333334E-005     0.0000000000000000     
  -2.0533333333333336E-005     0.0000000000000000     
  -2.0333333333333337E-005     0.0000000000000000     
  -2.0133333333333336E-005     0.0000000000000000     
  -1.9933333333333334E-005     0.0000000000000000     
  -1.9733333333333336E-005     0.0000000000000000     
  -1.9533333333333335E-005     0.0000000000000000     
  -1.9333333333333333E-005     0.0000000000000000     
  -1.9133333333333335E-005     0.0000000000000000     
  -1.8933333333333337E-005     0.0000000000000000     
  -1.8733333333333336E-005     0.0000000000000000     
  -1.8533333333333334E-005     0.0000000000000000     
  -1.8333333333333336E-005     0.0000000000000000     
  -1.8133333333333335E-005     0.0000000000000000     
  -1.7933333333333337E-005     0.0000000000000000     
  -1.7733333333333335E-005     0.0000000000000000     
  -1.7533333333333337E-005     0.0000000000000000     
  -1.7333333333333336E-005     0.0000000000000000     
  -1.7133333333333334E-005     0.0000000000000000     
  -1.6933333333333336E-005     0.0000000000000000     
  -1.6733333333333335E-005     0.0000000000000000     
  -1.6533333333333337E-005     0.0000000000000000     
  -1.6333333333333335E-005     0.0000000000000000     
  -1.6133333333333337E-005     0.0000000000000000     
  -1.5933333333333336E-005     0.0000000000000000     
  -1.5733333333333334E-005     0.0000000000000000     
  -1.5533333333333336E-005     0.0000000000000000     
  -1.5333333333333334E-005     0.0000000000000000     
  -1.5133333333333336E-005     0.0000000000000000     
  -1.4933333333333335E-005     0.0000000000000000     
  -1.4733333333333337E-005     0.0000000000000000     
  -1.4533333333333335E-005     0.0000000000000000     
  -1.4333333333333337E-005     0.0000000000000000     
  -1.4133333333333336E-005     0.0000000000000000     
  -1.3933333333333334E-005     0.0000000000000000     
  -1.3733333333333336E-005     0.0000000000000000     
  -1.3533333333333335E-005     0.0000000000000000     
  -1.3333333333333337E-005     0.0000000000000000     
  -1.3133333333333335E-005     0.0000000000000000     
  -1.2933333333333337E-005     0.0000000000000000     
  -1.2733333333333336E-005     0.0000000000000000     
  -1.2533333333333338E-005     0.0000000000000000     
  -1.2333333333333336E-005     0.0000000000000000     
  -1.2133333333333335E-005     0.0000000000000000     
  -1.1933333333333337E-005     0.0000000000000000     
  -1.1733333333333335E-005     0.0000000000000000     
  -1.1533333333333337E-005     0.0000000000000000     
  -1.1333333333333336E-005     0.0000000000000000     
  -1.1133333333333337E-005     0.0000000000000000     
  -1.0933333333333336E-005     0.0000000000000000     
  -1.0733333333333334E-005     0.0000000000000000     
  -1.0533333333333336E-005     0.0000000000000000     
  -1.0333333333333335E-005     0.0000000000000000     
  -1.0133333333333337E-005     0.0000000000000000     
  -9.9333333333333354E-006     0.0000000000000000     
  -9.7333333333333373E-006     0.0000000000000000     
  -9.5333333333333358E-006     0.0000000000000000     
  -9.3333333333333343E-006     0.0000000000000000     
  -9.1333333333333362E-006     0.0000000000000000     
  -8.9333333333333348E-006     0.0000000000000000     
  -8.7333333333333367E-006     0.0000000000000000     
  -8.5333333333333352E-006     0.0000000000000000     
  -8.3333333333333371E-006     0.0000000000000000     
  -8.1333333333333356E-006     0.0000000000000000     
  -7.9333333333333376E-006     0.0000000000000000     
  -7.7333333333333361E-006     0.0000000000000000     
  -7.5333333333333346E-006     0.0000000000000000     
  -7.3333333333333365E-006     0.0000000000000000     
  -7.1333333333333351E-006     0.0000000000000000     
  -6.9333333333333370E-006     0.0000000000000000     
  -6.7333333333333355E-006     0.0000000000000000     
  -6.5333333333333374E-006     0.0000000000000000     
  -6.3333333333333359E-006     0.0000000000000000     
  -6.1333333333333379E-006     0.0000000000000000     
  -5.9333333333333364E-006     0.0000000000000000     
  -5.7333333333333349E-006     0.0000000000000000     
  -5.5333333333333368E-006     0.0000000000000000     
  -5.3333333333333354E-006     0.0000000000000000     
  -5.1333333333333373E-006     0.0000000000000000     
  -4.9333333333333358E-006     0.0000000000000000     
  -4.7333333333333377E-006     0.0000000000000000     
  -4.5333333333333362E-006     0.0000000000000000     
  -4.3333333333333348E-006     0.0000000000000000     
  -4.1333333333333367E-006     0.0000000000000000     
  -3.9333333333333352E-006     0.0000000000000000     
  -3.7333333333333371E-006     0.0000000000000000     
  -3.5333333333333356E-006     0.0000000000000000     
  -3.3333333333333376E-006     0.0000000000000000     
  -3.1333333333333361E-006     0.0000000000000000     
  -2.9333333333333346E-006     0.0000000000000000     
  -2.7333333333333365E-006     0.0000000000000000     
  -2.5333333333333384E-006     0.0000000000000000     
  -2.3333333333333336E-006     0.0000000000000000     
  -2.1333333333333355E-006     0.0000000000000000     
  -1.9333333333333374E-006     0.0000000000000000     
  -1.7333333333333393E-006     0.0000000000000000     
  -1.5333333333333345E-006     0.0000000000000000     
  -1.3333333333333364E-006     0.0000000000000000     
  -1.1333333333333383E-006     0.0000000000000000     
  -9.3333333333333343E-007     0.0000000000000000     
  -7.3333333333333535E-007     0.0000000000000000     
  -5.3333333333333726E-007     0.0000000000000000     
  -3.3333333333333918E-007     0.0000000000000000     
  -1.3333333333333432E-007     0.0000000000000000     
   6.6666666666663770E-008     0.0000000000000000     
   2.6666666666666185E-007     0.0000000000000000     
   4.6666666666666672E-007     0.0000000000000000     
   6.6666666666666480E-007     0.0000000000000000     
   8.6666666666666289E-007     0.0000000000000000     
   1.0666666666666610E-006     0.0000000000000000     
   1.2666666666666658E-006     0.0000000000000000     
   1.4666666666666639E-006     0.0000000000000000     
   1.6666666666666620E-006     0.0000000000000000     
   1.8666666666666669E-006     0.0000000000000000     
   2.0666666666666649E-006     0.0000000000000000     
   2.2666666666666630E-006     0.0000000000000000     
   2.4666666666666611E-006     0.0000000000000000     
   2.6666666666666660E-006     0.0000000000000000     
   2.8666666666666641E-006     0.0000000000000000     
   3.0666666666666622E-006     0.0000000000000000     
   3.2666666666666602E-006     0.0000000000000000     
   3.4666666666666651E-006     0.0000000000000000     
   3.6666666666666632E-006     0.0000000000000000     
   3.8666666666666613E-006     0.0000000000000000     
   4.0666666666666661E-006     0.0000000000000000     
   4.2666666666666642E-006     0.0000000000000000     
   4.4666666666666623E-006     0.0000000000000000     
   4.6666666666666604E-006     0.0000000000000000     
   4.8666666666666652E-006     0.0000000000000000     
   5.0666666666666633E-006     0.0000000000000000     
   5.2666666666666614E-006     0.0000000000000000     
   5.4666666666666663E-006     0.0000000000000000     
   5.6666666666666644E-006     0.0000000000000000     
   5.8666666666666624E-006     0.0000000000000000     
   6.0666666666666605E-006     0.0000000000000000     
   6.2666666666666654E-006     0.0000000000000000     
   6.4666666666666635E-006     0.0000000000000000     
   6.6666666666666616E-006     0.0000000000000000     
   6.8666666666666664E-006     0.0000000000000000     
   7.0666666666666645E-006    -1.4928759814355261E-038
   7.2666666666666626E-006    -3.7954269799727102E-038
   7.4666666666666607E-006    -6.4410179445243060E-038
   7.6666666666666655E-006    -8.3968292688415680E-038
   7.8666666666666636E-006    -6.7819034141498183E-038
   8.0666666666666617E-006     0.0000000000000000     
   8.2666666666666598E-006     1.2471808566214450E-037
   8.4666666666666647E-006     2.9607842434050369E-037
   8.6666666666666627E-006     4.7455566644908804E-037
   8.8666666666666608E-006     6.1733573822040256E-037
   9.0666666666666657E-006     6.4286268787756059E-037
   9.2666666666666638E-006     4.7249214796168646E-037
   9.4666666666666619E-006     4.2422046509115488E-038
   9.6666666666666599E-006    -6.6621939615627407E-037
   9.8666666666666648E-006    -1.6000747814629581E-036
   1.0066666666666663E-005    -2.6106921307650334E-036
   1.0266666666666661E-005    -3.4475020146441420E-036
   1.0466666666666666E-005    -3.7760919310242826E-036
   1.0666666666666664E-005    -3.2289478830843976E-036
   1.0866666666666662E-005    -1.4870024165015332E-036
   1.1066666666666660E-005     1.6107834819065530E-036
   1.1266666666666665E-005     5.9457604138150757E-036
   1.1466666666666663E-005     1.1008682526724529E-035
   1.1666666666666661E-005     1.5838813495042900E-035
   1.1866666666666666E-005     1.9049911929758809E-035
   1.2066666666666664E-005     1.8977845459078453E-035
   1.2266666666666662E-005     1.3972366090283417E-035
   1.2466666666666660E-005     2.8277917817811349E-036
   1.2666666666666665E-005    -1.4689876821765802E-035
   1.2866666666666663E-005    -3.7306746863993481E-035
   1.3066666666666661E-005    -6.1829080047551515E-035
   1.3266666666666666E-005    -8.3019030239491111E-035
   1.3466666666666664E-005    -9.3928564868676068E-035
   1.3666666666666662E-005    -8.6824802254929954E-035
   1.3866666666666660E-005    -5.4754624436516820E-035
   1.4066666666666665E-005     6.3441610915011918E-036
   1.4266666666666663E-005     9.5258836468835630E-035
   1.4466666666666661E-005     2.0331593655887103E-034
   1.4666666666666666E-005     3.1303279105040683E-034
   1.4866666666666664E-005     3.9833077078452508E-034
   1.5066666666666662E-005     4.2697692526559113E-034
   1.5266666666666661E-005     3.6566791537250082E-034
   1.5466666666666665E-005     1.8770176703672685E-034
   1.5666666666666663E-005    -1.1748474845462247E-034
   1.5866666666666662E-005    -5.3442124152807531E-034
   1.6066666666666660E-005    -1.0136199625064274E-033
   1.6266666666666665E-005    -1.4683099936121193E-033
   1.6466666666666663E-005    -1.7787756840795478E-033
   1.6666666666666661E-005    -1.8065941252337419E-033
   1.6866666666666666E-005    -1.4196504049598307E-033
   1.7066666666666664E-005    -5.2656820458061317E-034
   1.7266666666666662E-005     8.8367953126958548E-034
   1.7466666666666660E-005     2.7042881205590214E-033
   1.7666666666666665E-005     4.6851843644616998E-033
   1.7866666666666663E-005     6.4308614336999536E-033
   1.8066666666666661E-005     7.4318734846098427E-033
   1.8266666666666666E-005     7.1366649761321182E-033
   1.8466666666666664E-005     5.0635818734631482E-033
   1.8666666666666662E-005     9.4325927877002080E-034
   1.8866666666666660E-005    -5.1296982879091170E-033
   1.9066666666666665E-005    -1.2567692057324913E-032
   1.9266666666666663E-005    -2.0223426686105352E-032
   1.9466666666666661E-005    -2.6426638210405215E-032
   1.9666666666666666E-005    -2.9157649541991250E-032
   1.9866666666666664E-005    -2.6372459675775816E-032
   2.0066666666666662E-005    -1.6464502850074829E-032
   2.0266666666666660E-005     1.1897002000519749E-033
   2.0466666666666665E-005     2.5694205312823110E-032
   2.0666666666666663E-005     5.4234458773139602E-032
   2.0866666666666661E-005     8.1961337733612242E-032
   2.1066666666666659E-005     1.0229609108158016E-031
   2.1266666666666664E-005     1.0774980887716367E-031
   2.1466666666666662E-005     9.1268925513310131E-032
   2.1666666666666660E-005     4.8001543975962398E-032
   2.1866666666666665E-005    -2.2757284105171473E-032
   2.2066666666666663E-005    -1.1581622743665883E-031
   2.2266666666666661E-005    -2.1900604687316917E-031
   2.2466666666666659E-005    -3.1326299086419325E-031
   2.2666666666666664E-005    -3.7429597411255933E-031
   2.2866666666666662E-005    -3.7605253883088010E-031
   2.3066666666666660E-005    -2.9587176353276065E-031
   2.3266666666666665E-005    -1.2078930910207812E-031
   2.3466666666666663E-005     1.4599518761294676E-031
   2.3666666666666661E-005     4.7987690187290782E-031
   2.3866666666666660E-005     8.3244785959130996E-031
   2.4066666666666664E-005     1.1335066330063961E-030
   2.4266666666666662E-005     1.2986188264720481E-030
   2.4466666666666661E-005     1.2425416333672007E-030
   2.4666666666666665E-005     8.9763259484723231E-031
   2.4866666666666663E-005     2.3494570325054536E-031
   2.5066666666666662E-005    -7.1568906200944428E-031
   2.5266666666666660E-005    -1.8513791522626057E-030
   2.5466666666666665E-005    -2.9928417191144632E-030
   2.5666666666666663E-005    -3.8965809600944432E-030
   2.5866666666666661E-005    -4.2852806426458203E-030
   2.6066666666666666E-005    -3.8960599809981588E-030
   2.6266666666666664E-005    -2.5422124802634608E-030
   2.6466666666666662E-005    -1.7960439311919974E-031
   2.6666666666666660E-005     3.0350857887383819E-030
   2.6866666666666665E-005     6.7096660830811622E-030
   2.7066666666666663E-005     1.0220692795427933E-029
   2.7266666666666661E-005     1.2768829767219538E-029
   2.7466666666666666E-005     1.3490438101562209E-029
   2.7666666666666664E-005     1.1620072740703314E-029
   2.7866666666666662E-005     6.6858658019402893E-030
   2.8066666666666667E-005    -1.2932166305938612E-030
   2.8266666666666658E-005    -1.1649774191564411E-029
   2.8466666666666663E-005    -2.2996554463893637E-029
   2.8666666666666668E-005    -3.3284381716527540E-029
   2.8866666666666659E-005    -4.0018862203235917E-029
   2.9066666666666664E-005    -4.0640985723521603E-029
   2.9266666666666669E-005    -3.3043456908281311E-029
   2.9466666666666660E-005    -1.6156973873634173E-029
   2.9666666666666665E-005     9.4950543022133544E-030
   2.9866666666666656E-005     4.1400009760932304E-029
   3.0066666666666661E-005     7.4950843885265818E-029
   3.0266666666666666E-005     1.0374530813170893E-028
   3.0466666666666657E-005     1.2035298722814895E-028
   3.0666666666666662E-005     1.1753499060764585E-028
   3.0866666666666667E-005     8.9801665612311489E-029
   3.1066666666666658E-005     3.5087879692496972E-029
   3.1266666666666663E-005    -4.3766162151623390E-029
   3.1466666666666668E-005    -1.3809514739539241E-028
   3.1666666666666659E-005    -2.3341079256820209E-028
   3.1866666666666664E-005    -3.1060408696568411E-028
   3.2066666666666656E-005    -3.4846052706442419E-028
   3.2266666666666660E-005    -3.2736439601021681E-028
   3.2466666666666665E-005    -2.3378451927391043E-028
   3.2666666666666657E-005    -6.4853133001532778E-029
   3.2866666666666661E-005     1.6787325026827593E-028
   3.3066666666666666E-005     4.3648173664699152E-028
   3.3266666666666658E-005     6.9753186281071079E-028
   3.3466666666666662E-005     8.9628378861859032E-028
   3.3666666666666667E-005     9.7445603320680437E-028
   3.3866666666666659E-005     8.8095954923708996E-028
   3.4066666666666664E-005     5.8429084134763566E-028
   3.4266666666666668E-005     8.4550503266849242E-029
   3.4466666666666660E-005    -5.7745282708008878E-028
   3.4666666666666665E-005    -1.3166835768957109E-027
   3.4866666666666656E-005    -2.0082478494772406E-027
   3.5066666666666661E-005    -2.5010054998404702E-027
   3.5266666666666666E-005    -2.6403026201141547E-027
   3.5466666666666657E-005    -2.2978306759153054E-027
   3.5666666666666662E-005    -1.4046237529758682E-027
   3.5866666666666667E-005     1.8528794215966280E-029
   3.6066666666666658E-005     1.8400565800268978E-027
   3.6266666666666663E-005     3.8127677479492885E-027
   3.6466666666666668E-005     5.5906364352579113E-027
   3.6666666666666659E-005     6.7698417401194170E-027
   3.6866666666666664E-005     6.9525577954313451E-027
   3.7066666666666669E-005     5.8270863212042321E-027
   3.7266666666666660E-005     3.2528883575362527E-027
   3.7466666666666665E-005    -6.6495355409518545E-028
   3.7666666666666656E-005    -5.5294261445794073E-027
   3.7866666666666661E-005    -1.0650172266075776E-026
   3.8066666666666666E-005    -1.5099332364082728E-026
   3.8266666666666657E-005    -1.7829016044764933E-026
   3.8466666666666662E-005    -1.7843813349713649E-026
   3.8666666666666667E-005    -1.4409156109212118E-026
   3.8866666666666658E-005    -7.2642318087035092E-027
   3.9066666666666663E-005     3.2010190196810212E-027
   3.9266666666666668E-005     1.5848893513230551E-026
   3.9466666666666659E-005     2.8816910141424722E-026
   3.9666666666666664E-005     3.9687777030943765E-026
   3.9866666666666655E-005     4.5811744297517323E-026
   4.0066666666666660E-005     4.4758377714478124E-026
   4.0266666666666665E-005     3.4843665708869345E-026
   4.0466666666666656E-005     1.5649770845908377E-026
   4.0666666666666661E-005    -1.1565204693813485E-026
   4.0866666666666666E-005    -4.3675062150431725E-026
   4.1066666666666657E-005    -7.5804066432185086E-026
   4.1266666666666662E-005    -1.0181292141088664E-025
   4.1466666666666667E-005    -1.1515247919948826E-025
   4.1666666666666658E-005    -1.1001427067118614E-025
   4.1866666666666663E-005    -8.2632347820165011E-026
   4.2066666666666668E-005    -3.2524174291462511E-026
   4.2266666666666660E-005     3.6582580151936803E-026
   4.2466666666666664E-005     1.1639441743524231E-025
   4.2666666666666656E-005     1.9447918551501031E-025
   4.2866666666666661E-005     2.5559066212067166E-025
   4.3066666666666665E-005     2.8386180993817570E-025
   4.3266666666666657E-005     2.6566498287411960E-025
   4.3466666666666662E-005     1.9275951804543508E-025
   4.3666666666666666E-005     6.5198947060112371E-026
   4.3866666666666658E-005    -1.0661479785965263E-025
   4.4066666666666663E-005    -3.0133113468429501E-025
   4.4266666666666667E-005    -4.8797643837239491E-025
   4.4466666666666659E-005    -6.2942718589518769E-025
   4.4666666666666664E-005    -6.8789952834243214E-025
   4.4866666666666655E-005    -6.3190938603727218E-025
   4.5066666666666660E-005    -4.4374638792323691E-025
   4.5266666666666665E-005    -1.2617582427382038E-025
   4.5466666666666656E-005     2.9308221341362519E-025
   4.5666666666666661E-005     7.6047946478819655E-025
   4.5866666666666666E-005     1.2004064840311928E-024
   4.6066666666666657E-005     1.5240112296339195E-024
   4.6266666666666662E-005     1.6426279052170243E-024
   4.6466666666666667E-005     1.4844021291523199E-024
   4.6666666666666658E-005     1.0117651896895607E-024
   4.6866666666666663E-005     2.3668593100179285E-025
   4.7066666666666668E-005    -7.6968034395624182E-025
   4.7266666666666659E-005    -1.8760810349254149E-024
   4.7466666666666664E-005    -2.9012383217724601E-024
   4.7666666666666655E-005    -3.6356287759184137E-024
   4.7866666666666660E-005    -3.8736797814128849E-024
   4.8066666666666665E-005    -3.4528520707614209E-024
   4.8266666666666656E-005    -2.2939668860460834E-024
   4.8466666666666661E-005    -4.3557743742683388E-025
   4.8666666666666666E-005     1.9453799016511388E-024
   4.8866666666666657E-005     4.5336968238450541E-024
   4.9066666666666662E-005     6.9015949650675455E-024
   4.9266666666666667E-005     8.5612273587422877E-024
   4.9466666666666658E-005     9.0405282007019013E-024
   4.9666666666666663E-005     7.9738178628875656E-024
   4.9866666666666655E-005     5.1939004318813080E-024
   5.0066666666666659E-005     8.0902182337574520E-025
   5.0266666666666664E-005    -4.7529559792858030E-024
   5.0466666666666656E-005    -1.0748848300585979E-023
   5.0666666666666660E-005    -1.6183266900442837E-023
   5.0866666666666665E-005    -1.9932509790513897E-023
   5.1066666666666657E-005    -2.0920450789220104E-023
   5.1266666666666661E-005    -1.8326133396550625E-023
   5.1466666666666666E-005    -1.1792360605760481E-023
   5.1666666666666658E-005    -1.5973839712894310E-024
   5.1866666666666662E-005     1.1250018733421035E-023
   5.2066666666666667E-005     2.5026853609573597E-023
   5.2266666666666659E-005     3.7445920817182384E-023
   5.2466666666666664E-005     4.5942514435377199E-023
   5.2666666666666655E-005     4.8076629308602465E-023
   5.2866666666666660E-005     4.2003735091052308E-023
   5.3066666666666665E-005     2.6944200550096802E-023
   5.3266666666666656E-005     3.5659435645643577E-024
   5.3466666666666661E-005    -2.5808439639526661E-023
   5.3666666666666666E-005    -5.7246922761630507E-023
   5.3866666666666657E-005    -8.5554066696670239E-023
   5.4066666666666662E-005    -1.0492265926908690E-022
   5.4266666666666667E-005    -1.0984172450589373E-022
   5.4466666666666658E-005    -9.6154539727315009E-023
   5.4666666666666663E-005    -6.2109688573353527E-023
   5.4866666666666668E-005    -9.2146234915969369E-024
   5.5066666666666659E-005     5.7305380510151005E-023
   5.5266666666666664E-005     1.2861273916538736E-022
   5.5466666666666655E-005     1.9303359455353396E-022
   5.5666666666666660E-005     2.3751349776175899E-022
   5.5866666666666665E-005     2.4964264438720276E-022
   5.6066666666666656E-005     2.2001393755486437E-022
   5.6266666666666661E-005     1.4456652327305779E-022
   5.6466666666666666E-005     2.6493363387319373E-023
   5.6666666666666657E-005    -1.2272242207118518E-022
   5.6866666666666662E-005    -2.8351777053968413E-022
   5.7066666666666667E-005    -4.2994206755542464E-022
   5.7266666666666658E-005    -5.3285410970372043E-022
   5.7466666666666663E-005    -5.6438557428300087E-022
   5.7666666666666654E-005    -5.0315467044717630E-022
   5.7866666666666659E-005    -3.3947057645263043E-022
   5.8066666666666664E-005    -7.9605348651932732E-023
   5.8266666666666655E-005     2.5182300544213570E-022
   5.8466666666666660E-005     6.1218675860704912E-022
   5.8666666666666665E-005     9.4443184879528546E-022
   5.8866666666666656E-005     1.1839785882085973E-021
   5.9066666666666661E-005     1.2684391611619991E-021
   5.9266666666666666E-005     1.1490510080125807E-021
   5.9466666666666657E-005     8.0218445036583261E-022
   5.9666666666666662E-005     2.3892357716351068E-022
   5.9866666666666667E-005    -4.8937451998863910E-022
   6.0066666666666659E-005    -1.2913741370889348E-021
   6.0266666666666663E-005    -2.0431084460763104E-021
   6.0466666666666655E-005    -2.6026008108275340E-021
   6.0666666666666660E-005    -2.8307552375662019E-021
   6.0866666666666664E-005    -2.6162060739788273E-021
   6.1066666666666656E-005    -1.9006370868804217E-021
   6.1266666666666661E-005    -7.0026230874673159E-022
   6.1466666666666665E-005     8.8108003246234541E-022
   6.1666666666666657E-005     2.6512659303714313E-021
   6.1866666666666662E-005     4.3443978135682503E-021
   6.2066666666666666E-005     5.6511703135787076E-021
   6.2266666666666658E-005     6.2631615861425557E-021
   6.2466666666666663E-005     5.9263209583519617E-021
   6.2666666666666668E-005     4.4963248003620292E-021
   6.2866666666666659E-005     1.9866382231401861E-021
   6.3066666666666664E-005    -1.4005363305001839E-021
   6.3266666666666655E-005    -5.2693295256574517E-021
   6.3466666666666660E-005    -9.0575679307316990E-021
   6.3666666666666665E-005    -1.2098442190015750E-020
   6.3866666666666656E-005    -1.3713011504014030E-020
   6.4066666666666661E-005    -1.3324058901529379E-020
   6.4266666666666666E-005    -1.0576185909260962E-020
   6.4466666666666657E-005    -5.4428754916834148E-021
   6.4666666666666662E-005     1.7005197612117183E-021
   6.4866666666666667E-005     1.0057349794734146E-020
   6.5066666666666658E-005     1.8458155706144348E-020
   6.5266666666666663E-005     2.5482752798116521E-020
   6.5466666666666654E-005     2.9650179197038172E-020
   6.5666666666666659E-005     2.9658043875205962E-020
   6.5866666666666664E-005     2.4640665163079066E-020
   6.6066666666666655E-005     1.4405902898410768E-020
   6.6266666666666660E-005    -3.9388499000442540E-022
   6.6466666666666665E-005    -1.8199162548297154E-020
   6.6666666666666656E-005    -3.6621466760353290E-020
   6.6866666666666661E-005    -5.2677914867059859E-020
   6.7066666666666666E-005    -6.3173883643948784E-020
   6.7266666666666657E-005    -6.5199164287950981E-020
   6.7466666666666662E-005    -5.6676593189846425E-020
   6.7666666666666667E-005    -3.6881195010346405E-020
   6.7866666666666658E-005    -6.8363262609111291E-021
   6.8066666666666663E-005     3.0504666463328253E-020
   6.8266666666666655E-005     7.0364797353419534E-020
   6.8466666666666659E-005     1.0657758842355761E-019
   6.8666666666666664E-005     1.3234158262994216E-019
   6.8866666666666656E-005     1.4123250759457424E-019
   6.9066666666666660E-005     1.2835441698107172E-019
   6.9266666666666665E-005     9.1464856460546014E-020
   6.9466666666666657E-005     3.1880145037381762E-020
   6.9666666666666661E-005    -4.5033996987594151E-020
   6.9866666666666666E-005    -1.2995072046693420E-019
   7.0066666666666658E-005    -2.1034865642629937E-019
   7.0266666666666662E-005    -2.7196292333702210E-019
   7.0466666666666654E-005    -3.0081301854891689E-019
   7.0666666666666659E-005    -2.8558351194786753E-019
   7.0866666666666664E-005    -2.2003022388486436E-019
   7.1066666666666655E-005    -1.0501682139229222E-019
   7.1266666666666660E-005     5.0228894798406035E-020
   7.1466666666666665E-005     2.2800003153863035E-019
   7.1666666666666656E-005     4.0337829632545215E-019
   7.1866666666666661E-005     5.4694360834379078E-019
   7.2066666666666666E-005     6.2875673400896053E-019
   7.2266666666666657E-005     6.2320247468960838E-019
   7.2466666666666662E-005     5.1405976687478115E-019
   7.2666666666666667E-005     2.9900441398896384E-019
   7.2866666666666658E-005    -7.3088644949419834E-021
   7.3066666666666663E-005    -3.7236659722719730E-019
   7.3266666666666654E-005    -7.4768809039758715E-019
   7.3466666666666659E-005    -1.0737092830176927E-018
   7.3666666666666664E-005    -1.2874282480757482E-018
   7.3866666666666655E-005    -1.3320841104323062E-018
   7.4066666666666660E-005    -1.1676669710387894E-018
   7.4266666666666665E-005    -7.8069213154935840E-019
   7.4466666666666656E-005    -1.9149271247163511E-019
   7.4666666666666661E-005     5.4263570341240290E-019
   7.4866666666666666E-005     1.3297427757084749E-018
   7.5066666666666657E-005     2.0516395297030235E-018
   7.5266666666666662E-005     2.5782026485244265E-018
   7.5466666666666653E-005     2.7863409361823164E-018