  -3.3333333333333335E-005     0.0000000000000000     
  -3.3133333333333337E-005     0.0000000000000000     
  -3.2933333333333332E-005     0.0000000000000000     
  -3.2733333333333334E-005     0.0000000000000000     
  -3.2533333333333336E-005     0.0000000000000000     
  -3.2333333333333338E-005     0.0000000000000000     
  -3.2133333333333333E-005     0.0000000000000000     
  -3.1933333333333335E-005     0.0000000000000000     
  -3.1733333333333337E-005     0.0000000000000000     
  -3.1533333333333332E-005     0.0000000000000000     
  -3.1333333333333334E-005     0.0000000000000000     
  -3.1133333333333336E-005     0.0000000000000000     
  -3.0933333333333338E-005     0.0000000000000000     
  -3.0733333333333333E-005     0.0000000000000000     
  -3.0533333333333335E-005     0.0000000000000000     
  -3.0333333333333337E-005     0.0000000000000000     
  -3.0133333333333335E-005     0.0000000000000000     
  -2.9933333333333334E-005     0.0000000000000000     
  -2.9733333333333336E-005     0.0000000000000000     
  -2.9533333333333334E-005     0.0000000000000000     
  -2.9333333333333336E-005     0.0000000000000000     
  -2.9133333333333334E-005     0.0000000000000000     
  -2.8933333333333336E-005     0.0000000000000000     
  -2.8733333333333335E-005     0.0000000000000000     
  -2.8533333333333333E-005     0.0000000000000000     
  -2.8333333333333335E-005     0.0000000000000000     
  -2.8133333333333337E-005     0.0000000000000000     
  -2.7933333333333336E-005     0.0000000000000000     
  -2.7733333333333334E-005     0.0000000000000000     
  -2.7533333333333336E-005     0.0000000000000000     
  -2.7333333333333335E-005     0.0000000000000000     
  -2.7133333333333333E-005     0.0000000000000000     
  -2.6933333333333335E-005     0.0000000000000000     
  -2.6733333333333337E-005     0.0000000000000000     
  -2.6533333333333336E-005     0.0000000000000000     
  -2.6333333333333334E-005     0.0000000000000000     
  -2.6133333333333336E-005     0.0000000000000000     
  -2.5933333333333335E-005     0.0000000000000000     
  -2.5733333333333333E-005     0.0000000000000000     
  -2.5533333333333335E-005     0.0000000000000000     
  -2.5333333333333337E-005     0.0000000000000000     
  -2.5133333333333336E-005     0.0000000000000000     
  -2.4933333333333334E-005     0.0000000000000000     
  -2.4733333333333336E-005     0.0000000000000000     
  -2.4533333333333334E-005     0.0000000000000000     
  -2.4333333333333333E-005     0.0000000000000000     
  -2.4133333333333335E-005     0.0000000000000000     
  -2.3933333333333337E-005     0.0000000000000000     
  -2.3733333333333335E-005     0.0000000000000000     
  -2.3533333333333334E-005     0.0000000000000000     
  -2.3333333333333336E-005     0.0000000000000000     
  -2.3133333333333338E-005     0.0000000000000000     
  -2.2933333333333336E-005     0.0000000000000000     
  -2.2733333333333335E-005     0.0000000000000000     
  -2.2533333333333337E-005     0.0000000000000000     
  -2.2333333333333335E-005     0.0000000000000000     
  -2.2133333333333334E-005     0.0000000000000000     
  -2.1933333333333336E-005     0.0000000000000000     
  -2.1733333333333338E-005     0.0000000000000000     
  -2.1533333333333336E-005     0.0000000000000000     
  -2.1333333333333335E-005     0.0000000000000000     
  -2.1133333333333337E-005     0.0000000000000000     
  -2.0933333333333335E-005     0.0000000000000000     
  -2.0733333333333334E-005     0.0000000000000000     
  -2.0533333333333336E-005     0.0000000000000000     
  -2.0333333333333337E-005     0.0000000000000000     
  -2.0133333333333336E-005     0.0000000000000000     
  -1.9933333333333334E-005     0.0000000000000000     
  -1.9733333333333336E-005     0.0000000000000000     
  -1.9533333333333335E-005     0.0000000000000000     
  -1.9333333333333333E-005     0.0000000000000000     
  -1.9133333333333335E-005     0.0000000000000000     
  -1.8933333333333337E-005     0.0000000000000000     
  -1.8733333333333336E-005     0.0000000000000000     
  -1.8533333333333334E-005     0.0000000000000000     
  -1.8333333333333336E-005     0.0000000000000000     
  -1.8133333333333335E-005     0.0000000000000000     
  -1.7933333333333337E-005     0.0000000000000000     
  -1.7733333333333335E-005     0.0000000000000000     
  -1.7533333333333337E-005     0.0000000000000000     
  -1.7333333333333336E-005     0.0000000000000000     
  -1.7133333333333334E-005     0.0000000000000000     
  -1.6933333333333336E-005     0.0000000000000000     
  -1.6733333333333335E-005     0.0000000000000000     
  -1.6533333333333337E-005     0.0000000000000000     
  -1.6333333333333335E-005     0.0000000000000000     
  -1.6133333333333337E-005     0.0000000000000000     
  -1.5933333333333336E-005     0.0000000000000000     
  -1.5733333333333334E-005     0.0000000000000000     
  -1.5533333333333336E-005     0.0000000000000000     
  -1.5333333333333334E-005     0.0000000000000000     
  -1.5133333333333336E-005     0.0000000000000000     
  -1.4933333333333335E-005     0.0000000000000000     
  -1.4733333333333337E-005     0.0000000000000000     
  -1.4533333333333335E-005     0.0000000000000000     
  -1.4333333333333337E-005     0.0000000000000000     
  -1.4133333333333336E-005     0.0000000000000000     
  -1.3933333333333334E-005     0.0000000000000000     
  -1.3733333333333336E-005     0.0000000000000000     
  -1.3533333333333335E-005     0.0000000000000000     
  -1.3333333333333337E-005     0.0000000000000000     
  -1.3133333333333335E-005     0.0000000000000000     
  -1.2933333333333337E-005     0.0000000000000000     
  -1.2733333333333336E-005     0.0000000000000000     
  -1.2533333333333338E-005     0.0000000000000000     
  -1.2333333333333336E-005     0.0000000000000000     
  -1.2133333333333335E-005     0.0000000000000000     
  -1.1933333333333337E-005     0.0000000000000000     
  -1.1733333333333335E-005     0.0000000000000000     
  -1.1533333333333337E-005     0.0000000000000000     
  -1.1333333333333336E-005     0.0000000000000000     
  -1.1133333333333337E-005     0.0000000000000000     
  -1.0933333333333336E-005     0.0000000000000000     
  -1.0733333333333334E-005     0.0000000000000000     
  -1.0533333333333336E-005     0.0000000000000000     
  -1.0333333333333335E-005     0.0000000000000000     
  -1.0133333333333337E-005     0.0000000000000000     
  -9.9333333333333354E-006     0.0000000000000000     
  -9.7333333333333373E-006     0.0000000000000000     
  -9.5333333333333358E-006     0.0000000000000000     
  -9.3333333333333343E-006     0.0000000000000000     
  -9.1333333333333362E-006     0.0000000000000000     
  -8.9333333333333348E-006     0.0000000000000000     
  -8.7333333333333367E-006     0.0000000000000000     
  -8.5333333333333352E-006     0.0000000000000000     
  -8.3333333333333371E-006     0.0000000000000000     
  -8.1333333333333356E-006     0.0000000000000000     
  -7.9333333333333376E-006     0.0000000000000000     
  -7.7333333333333361E-006     0.0000000000000000     
  -7.5333333333333346E-006     0.0000000000000000     
  -7.3333333333333365E-006     0.0000000000000000     
  -7.1333333333333351E-006     0.0000000000000000     
  -6.9333333333333370E-006     0.0000000000000000     
  -6.7333333333333355E-006     0.0000000000000000     
  -6.5333333333333374E-006     0.0000000000000000     
  -6.3333333333333359E-006     0.0000000000000000     
  -6.1333333333333379E-006     0.0000000000000000     
  -5.9333333333333364E-006     0.0000000000000000     
  -5.7333333333333349E-006     0.0000000000000000     
  -5.5333333333333368E-006     0.0000000000000000     
  -5.3333333333333354E-006     0.0000000000000000     
  -5.1333333333333373E-006     0.0000000000000000     
  -4.9333333333333358E-006     0.0000000000000000     
  -4.7333333333333377E-006     0.0000000000000000     
  -4.5333333333333362E-006     0.0000000000000000     
  -4.3333333333333348E-006     0.0000000000000000     
  -4.1333333333333367E-006     0.0000000000000000     
  -3.9333333333333352E-006     0.0000000000000000     
  -3.7333333333333371E-006     0.0000000000000000     
  -3.5333333333333356E-006     0.0000000000000000     
  -3.3333333333333376E-006     0.0000000000000000     
  -3.1333333333333361E-006     0.0000000000000000     
  -2.9333333333333346E-006     0.0000000000000000     
  -2.7333333333333365E-006     0.0000000000000000     
  -2.5333333333333384E-006     0.0000000000000000     
  -2.3333333333333336E-006     0.0000000000000000     
  -2.1333333333333355E-006     0.0000000000000000     
  -1.9333333333333374E-006     0.0000000000000000     
  -1.7333333333333393E-006     0.0000000000000000     
  -1.5333333333333345E-006     0.0000000000000000     
  -1.3333333333333364E-006     0.0000000000000000     
  -1.1333333333333383E-006     0.0000000000000000     
  -9.3333333333333343E-007     0.0000000000000000     
  -7.3333333333333535E-007     0.0000000000000000     
  -5.3333333333333726E-007     0.0000000000000000     
  -3.3333333333333918E-007     0.0000000000000000     
  -1.3333333333333432E-007     0.0000000000000000     
   6.6666666666663770E-008     0.0000000000000000     
   2.6666666666666185E-007     0.0000000000000000     
   4.6666666666666672E-007     0.0000000000000000     
   6.6666666666666480E-007     0.0000000000000000     
   8.6666666666666289E-007     0.0000000000000000     
   1.0666666666666610E-006     0.0000000000000000     
   1.2666666666666658E-006     0.0000000000000000     
   1.4666666666666639E-006     0.0000000000000000     
   1.6666666666666620E-006     0.0000000000000000     
   1.8666666666666669E-006     0.0000000000000000     
   2.0666666666666649E-006     0.0000000000000000     
   2.2666666666666630E-006     0.0000000000000000     
   2.4666666666666611E-006     0.0000000000000000     
   2.6666666666666660E-006     0.0000000000000000     
   2.8666666666666641E-006     0.0000000000000000     
   3.0666666666666622E-006     0.0000000000000000     
   3.2666666666666602E-006     0.0000000000000000     
   3.4666666666666651E-006     0.0000000000000000     
   3.6666666666666632E-006     0.0000000000000000     
   3.8666666666666613E-006     0.0000000000000000     
   4.0666666666666661E-006     0.0000000000000000     
   4.2666666666666642E-006     0.0000000000000000     
   4.4666666666666623E-006     0.0000000000000000     
   4.6666666666666604E-006     0.0000000000000000     
   4.8666666666666652E-006     0.0000000000000000     
   5.0666666666666633E-006     0.0000000000000000     
   5.2666666666666614E-006     0.0000000000000000     
   5.4666666666666663E-006     0.0000000000000000     
   5.6666666666666644E-006     0.0000000000000000     
   5.8666666666666624E-006     0.0000000000000000     
   6.0666666666666605E-006     0.0000000000000000     
   6.2666666666666654E-006     0.0000000000000000     
   6.4666666666666635E-006     0.0000000000000000     
   6.6666666666666616E-006     0.0000000000000000     
   6.8666666666666664E-006     0.0000000000000000     
   7.0666666666666645E-006     0.0000000000000000     
   7.2666666666666626E-006     0.0000000000000000     
   7.4666666666666607E-006    -1.9587307895378363E-038
   7.6666666666666655E-006    -4.6329696196343958E-038
   7.8666666666666636E-006    -7.0296944610769899E-038
   8.0666666666666617E-006    -5.6866272346968835E-038
   8.2666666666666598E-006    -1.3008389570278316E-038
   8.4666666666666647E-006     7.0213001227562986E-038
   8.6666666666666627E-006     1.8048387908872206E-037
   8.8666666666666608E-006     2.9098926705048282E-037
   9.0666666666666657E-006     3.6159367896510101E-037
   9.2666666666666638E-006     3.4537260667448380E-037
   9.4666666666666619E-006     2.0041830262669832E-037
   9.6666666666666599E-006    -9.2057831777534844E-038
   9.8666666666666648E-006    -5.1651161866819366E-037
   1.0066666666666663E-005    -1.0153373709454298E-036
   1.0266666666666661E-005    -1.4875971948321189E-036
   1.0466666666666666E-005    -1.7940456986449103E-036
   1.0666666666666664E-005    -1.7746058101505758E-036
   1.0866666666666662E-005    -1.2774371325437608E-036
   1.1066666666666660E-005    -2.0015824405249507E-037
   1.1266666666666665E-005     1.4648677301668127E-036
   1.1466666666666663E-005     3.5841858775762578E-036
   1.1666666666666661E-005     5.8488090348027520E-036
   1.1866666666666666E-005     7.7668077213586731E-036
   1.2066666666666664E-005     8.6947465779204481E-036
   1.2266666666666662E-005     7.9224416236835463E-036
   1.2466666666666660E-005     4.8167552717959232E-036
   1.2666666666666665E-005    -9.8397671488779813E-037
   1.2866666666666663E-005    -9.3487243652170332E-036
   1.3066666666666661E-005    -1.9449242800575932E-035
   1.3266666666666666E-005    -2.9632536586424985E-035
   1.3466666666666664E-005    -3.7438347129987882E-035
   1.3666666666666662E-005    -3.9831499803805995E-035
   1.3866666666666660E-005    -3.3683893937745826E-035
   1.4066666666666665E-005    -1.6505335437142816E-035
   1.4266666666666663E-005     1.2645810957858998E-035
   1.4466666666666661E-005     5.2221049549354629E-035
   1.4666666666666666E-005     9.7421367252926988E-035
   1.4866666666666664E-005     1.3990020890447940E-034
   1.5066666666666662E-005     1.6820154405634622E-034
   1.5266666666666661E-005     1.6915530160169504E-034
   1.5466666666666665E-005     1.3030890968573879E-034
   1.5666666666666663E-005     4.3254045163636796E-035
   1.5866666666666662E-005    -9.2573394369620671E-035
   1.6066666666666660E-005    -2.6633864272801753E-034
   1.6266666666666665E-005    -4.5346613944839443E-034
   1.6466666666666663E-005    -6.1559339680292561E-034
   1.6666666666666661E-005    -7.0380657956820910E-034
   1.6866666666666666E-005    -6.6576643443189790E-034
   1.7066666666666664E-005    -4.5665003018244390E-034
   1.7266666666666662E-005    -5.2889531605325667E-035
   1.7466666666666660E-005     5.3340319913541590E-034
   1.7666666666666665E-005     1.2424719985512260E-033
   1.7866666666666663E-005     1.9612427130408989E-033
   1.8066666666666661E-005     2.5278495409074654E-033
   1.8266666666666666E-005     2.7494232465397586E-033
   1.8466666666666664E-005     2.4343103126247512E-033
   1.8666666666666662E-005     1.4369464267997383E-033
   1.8866666666666660E-005    -2.9005068263038106E-034
   1.9066666666666665E-005    -2.6458572351155226E-033
   1.9266666666666663E-005    -5.3459165147474608E-033
   1.9466666666666661E-005    -7.9148231345932717E-033
   1.9666666666666666E-005    -9.7203060503235019E-033
   1.9866666666666664E-005    -1.0056363722176270E-032
   2.0066666666666662E-005    -8.2753281502072664E-033
   2.0266666666666660E-005    -3.9572499368233978E-033
   2.0466666666666665E-005     2.9079698838168378E-033
   2.0666666666666663E-005     1.1762474753591800E-032
   2.0866666666666661E-005     2.1391380240667115E-032
   2.1066666666666659E-005     2.9948745485151142E-032
   2.1266666666666664E-005     3.5135432106530108E-032
   2.1466666666666662E-005     3.4544658033165597E-032
   2.1666666666666660E-005     2.6158913494533685E-032
   2.1866666666666665E-005     8.9417107549006364E-033
   2.2066666666666663E-005    -1.6574205860365319E-032
   2.2266666666666661E-005    -4.7835032262432544E-032
   2.2466666666666659E-005    -8.0100283322446889E-032
   2.2666666666666664E-005    -1.0670216129193681E-031
   2.2866666666666662E-005    -1.1982297046109765E-031
   2.3066666666666660E-005    -1.1180095032323304E-031
   2.3266666666666665E-005    -7.6860714931128730E-032
   2.3466666666666663E-005    -1.3035139140872904E-032
   2.3666666666666661E-005     7.6077970875331431E-032
   2.3866666666666660E-005     1.8016650276281945E-031
   2.4066666666666664E-005     2.8212148889367799E-031
   2.4266666666666662E-005     3.5940246068764095E-031
   2.4466666666666661E-005     3.8704331697152042E-031
   2.4666666666666665E-005     3.4219813695798910E-031
   2.4866666666666663E-005     2.0975718679123836E-031
   2.5066666666666662E-005    -1.1824697343000670E-032
   2.5266666666666660E-005    -3.0567315297935197E-031
   2.5466666666666665E-005    -6.3397725233915284E-031
   2.5666666666666663E-005    -9.3911522625046244E-031
   2.5866666666666661E-005    -1.1493669670249788E-030
   2.6066666666666666E-005    -1.1894770912241888E-030
   2.6266666666666664E-005    -9.9538190904466238E-031
   2.6466666666666662E-005    -5.3130303998974368E-031
   2.6666666666666660E-005     1.9365849778313943E-031
   2.6866666666666665E-005     1.1130936563868527E-030
   2.7066666666666663E-005     2.0989516161616048E-030
   2.7266666666666661E-005     2.9687452133971830E-030
   2.7466666666666666E-005     3.5063785255649749E-030
   2.7666666666666664E-005     3.4964569770858425E-030
   2.7866666666666662E-005     2.7690742383337402E-030
   2.8066666666666667E-005     1.2489674497260838E-030
   2.8266666666666658E-005    -9.9983505780376947E-031
   2.8466666666666663E-005    -3.7444810188946535E-030
   2.8666666666666668E-005    -6.5795446888971150E-030
   2.8866666666666659E-005    -8.9575580997066425E-030
   2.9066666666666664E-005    -1.0257801553411075E-029
   2.9266666666666669E-005    -9.8906094678187271E-030
   2.9466666666666660E-005    -7.4263670576475683E-030
   2.9666666666666665E-005    -2.7301516455475049E-030
   2.9866666666666656E-005     3.9237083604458835E-030
   3.0066666666666661E-005     1.1786288770384162E-029
   3.0266666666666666E-005     1.9645421314332156E-029
   3.0466666666666657E-005     2.5933597629084172E-029
   3.0666666666666662E-005     2.8938463620972518E-029
   3.0866666666666667E-005     2.7102895902163501E-029
   3.1066666666666658E-005     1.9380107913532355E-029
   3.1266666666666663E-005     5.5882692988373892E-030
   3.1466666666666668E-005    -1.3306173249500191E-029
   3.1666666666666659E-005    -3.5052978230786029E-029
   3.1866666666666664E-005    -5.6198701981061381E-029
   3.2066666666666656E-005    -7.2427671028061948E-029
   3.2266666666666660E-005    -7.9168341573982206E-029
   3.2466666666666665E-005    -7.2418835824442071E-029
   3.2666666666666657E-005    -4.9689663631405682E-029
   3.2866666666666661E-005    -1.0910603783541358E-029
   3.3066666666666666E-005     4.0885626974707392E-029
   3.3266666666666658E-005     9.9297631721982889E-029
   3.3466666666666662E-005     1.5487281388354890E-028
   3.3666666666666667E-005     1.9610420546858456E-028
   3.3866666666666659E-005     2.1109634230529965E-028
   3.4066666666666664E-005     1.8975688203968109E-028
   3.4266666666666668E-005     1.2623094949254309E-028
   3.4466666666666660E-005     2.1172543829383713E-029
   3.4666666666666665E-005    -1.1662839519751201E-028
   3.4866666666666656E-005    -2.6974748134782620E-028
   3.5066666666666661E-005    -4.1315044352170123E-028
   3.5266666666666666E-005    -5.1694660824100413E-028
   3.5466666666666657E-005    -5.5079867887349858E-028
   3.5666666666666662E-005    -4.8958102151295729E-028
   3.5866666666666667E-005    -3.1953286670673347E-028
   3.6066666666666658E-005    -4.3863337354379878E-029
   3.6266666666666663E-005     3.1340044094843716E-028
   3.6466666666666668E-005     7.0650968154296911E-028
   3.6666666666666659E-005     1.0709667901324792E-027
   3.6866666666666664E-005     1.3308129693397134E-027
   3.7066666666666669E-005     1.4099610826307485E-027
   3.7266666666666660E-005     1.2464728378081021E-027
   3.7466666666666665E-005     8.0783873000351197E-028
   3.7666666666666656E-005     1.0464115444534066E-028
   3.7866666666666661E-005    -8.0038282926155705E-028
   3.8066666666666666E-005    -1.7907462252887736E-027
   3.8266666666666657E-005    -2.7042735387749434E-027
   3.8466666666666662E-005    -3.3517405637918163E-027
   3.8666666666666667E-005    -3.5452680194395566E-027
   3.8866666666666658E-005    -3.1336010716057683E-027
   3.9066666666666663E-005    -2.0394161367322315E-027
   3.9266666666666668E-005    -2.9220372820288415E-028
   3.9466666666666659E-005     1.9504901734100396E-027
   3.9666666666666664E-005     4.4002984849458696E-027
   3.9866666666666655E-005     6.6588049454776931E-027
   4.0066666666666660E-005     8.2637909905844402E-027
   4.0266666666666665E-005     8.7586355786354078E-027
   4.0466666666666656E-005     7.7776754874134133E-027
   4.0666666666666661E-005     5.1356609081716927E-027
   4.0866666666666666E-005     9.0578006769187768E-028
   4.1066666666666657E-005    -4.5308534240159915E-027
   4.1266666666666662E-005    -1.0480225126295136E-026
   4.1466666666666667E-005    -1.5986528170776241E-026
   4.1666666666666658E-005    -1.9943386678630794E-026
   4.1866666666666663E-005    -2.1259101897950467E-026
   4.2066666666666668E-005    -1.9058571321348543E-026
   4.2266666666666660E-005    -1.2893630280394136E-026
   4.2466666666666664E-005    -2.9255467115735039E-027
   4.2666666666666656E-005     9.9600661150551422E-027
   4.2866666666666661E-005     2.4142494817866195E-026
   4.3066666666666665E-005     3.7385480316080420E-026
   4.3266666666666657E-005     4.7095541465054655E-026
   4.3466666666666662E-005     5.0704453765436432E-026
   4.3666666666666666E-005     4.6135392972811709E-026
   4.3866666666666658E-005     3.2288110747063034E-026
   4.4066666666666663E-005     9.4604005391673845E-027
   4.4266666666666667E-005    -2.0383973197916506E-026
   4.4466666666666659E-005    -5.3583407802016337E-026
   4.4666666666666664E-005    -8.5041337972459498E-026
   4.4866666666666655E-005    -1.0880299940312256E-025
   4.5066666666666660E-005    -1.1891374334367876E-025
   4.5266666666666665E-005    -1.1046951736920852E-025
   4.5466666666666656E-005    -8.0716457363391877E-026
   4.5666666666666661E-005    -3.0016653563213173E-026
   4.5866666666666666E-005     3.7518881009236369E-026
   4.6066666666666657E-005     1.1391386897067812E-025
   4.6266666666666662E-005     1.8786003854857546E-025
   4.6466666666666667E-005     2.4594814410521906E-025
   4.6666666666666658E-005     2.7453367764535696E-025
   4.6866666666666663E-005     2.6205069337733310E-025
   4.7066666666666668E-005     2.0146963944877138E-025
   4.7266666666666659E-005     9.2505971265968255E-026
   4.7466666666666664E-005    -5.6854364078732864E-026
   4.7666666666666655E-005    -2.2992070918242403E-025
   4.7866666666666660E-005    -4.0226164737995790E-025
   4.8066666666666665E-005    -5.4420062584737263E-025
   4.8266666666666656E-005    -6.2474366939708396E-025
   4.8466666666666661E-005    -6.1657466959687435E-025
   4.8666666666666666E-005    -5.0149845106020800E-025
   4.8866666666666657E-005    -2.7550476541968403E-025
   4.9066666666666662E-005     4.7481460848054925E-026
   4.9266666666666667E-005     4.3407416436432209E-025
   4.9466666666666658E-005     8.3285045170169054E-025
   4.9666666666666663E-005     1.1791124657937226E-024
   4.9866666666666655E-005     1.4028956399183008E-024
   5.0066666666666659E-005     1.4395748123902964E-024
   5.0266666666666664E-005     1.2418501791554970E-024
   5.0466666666666656E-005     7.9141316607224124E-025
   5.0666666666666660E-005     1.0828485337386044E-025
   5.0866666666666665E-005    -7.4421660418899963E-025
   5.1066666666666657E-005    -1.6606336553786939E-024
   5.1266666666666661E-005    -2.5017713867125707E-024
   5.1466666666666666E-005    -3.1105045816963218E-024
   5.1666666666666658E-005    -3.3339774376623088E-024
   5.1866666666666662E-005    -3.0499038925267911E-024
   5.2066666666666667E-005    -2.1935289183781179E-024
   5.2266666666666659E-005    -7.8095533565933944E-025
   5.2466666666666664E-005     1.0757914087324005E-024
   5.2666666666666655E-005     3.1662328714847550E-024
   5.2866666666666660E-005     5.1945902907429238E-024
   5.3066666666666665E-005     6.8098969845837499E-024
   5.3266666666666656E-005     7.6518458621434201E-024
   5.3466666666666661E-005     7.4082953128482006E-024
   5.3666666666666666E-005     5.8775844847614654E-024
   5.3866666666666657E-005     3.0264532271820598E-024
   5.4066666666666662E-005    -9.6691174191005180E-025
   5.4266666666666667E-005    -5.6951059690266461E-024
   5.4466666666666658E-005    -1.0537592927889603E-023
   5.4666666666666663E-005    -1.4715584875391903E-023
   5.4866666666666668E-005    -1.7385405723021895E-023
   5.5066666666666659E-005    -1.7763623506308299E-023
   5.5266666666666664E-005    -1.5270474369289794E-023
   5.5466666666666655E-005    -9.6720531649592980E-024
   5.5666666666666660E-005    -1.1974764574139756E-024
   5.5866666666666665E-005     9.3940759368993283E-024
   5.6066666666666656E-005     2.0818990655034198E-023
   5.6266666666666661E-005     3.1363197392753174E-023
   5.6466666666666666E-005     3.9069175679073765E-023
   5.6666666666666657E-005     4.2006281534054361E-023
   5.6866666666666662E-005     3.8598579128342360E-023
   5.7066666666666667E-005     2.7968851979888374E-023
   5.7266666666666658E-005     1.0245204788813055E-023
   5.7466666666666663E-005    -1.3229604432783462E-023
   5.7666666666666654E-005    -3.9843556253518540E-023
   5.7866666666666659E-005    -6.5860482363964251E-023
   5.8066666666666664E-005    -8.6786892208462395E-023
   5.8266666666666655E-005    -9.7950605614547725E-023
   5.8466666666666660E-005    -9.5243115080971619E-023
   5.8666666666666665E-005    -7.5939228035444811E-023
   5.8866666666666656E-005    -3.9474072738174743E-023
   5.9066666666666661E-005     1.1963219200361394E-023
   5.9266666666666666E-005     7.3161781316793705E-023
   5.9466666666666657E-005     1.3606829513506736E-022
   5.9666666666666662E-005     1.9048725252567640E-022
   5.9866666666666667E-005     2.2530488444416687E-022
   6.0066666666666659E-005     2.3015237790876481E-022
   6.0266666666666663E-005     1.9732867081431097E-022
   6.0466666666666655E-005     1.2371820434728928E-022
   6.0666666666666660E-005     1.2377289134068282E-023
   6.0866666666666664E-005    -1.2655689191573451E-022
   6.1066666666666656E-005    -2.7594642241089218E-022
   6.1266666666666661E-005    -4.1293818967604746E-022
   6.1466666666666665E-005    -5.1151679799091077E-022
   6.1666666666666657E-005    -5.4618472304225201E-022
   6.1866666666666662E-005    -4.9640636298890678E-022
   6.2066666666666666E-005    -3.5123651889553596E-022
   6.2266666666666658E-005    -1.1338874605835500E-022
   6.2466666666666663E-005     1.9807851781460338E-022
   6.2666666666666668E-005     5.4723631880512231E-022
   6.2866666666666659E-005     8.8350755310521495E-022
   6.3066666666666664E-005     1.1468950069824010E-021
   6.3266666666666655E-005     1.2760164667683473E-021
   6.3466666666666660E-005     1.2182251984276781E-021
   6.3666666666666665E-005     9.4057069651947793E-022
   6.3866666666666656E-005     4.3992286194602572E-022
   6.4066666666666661E-005    -2.4965827014401338E-022
   6.4266666666666666E-005    -1.0541978678978269E-021
   6.4466666666666657E-005    -1.8632578532087231E-021
   6.4666666666666662E-005    -2.5403918204434313E-021
   6.4866666666666667E-005    -2.9404259370278438E-021
   6.5066666666666658E-005    -2.9321769510705797E-021
   6.5266666666666663E-005    -2.4239784680784885E-021
   6.5466666666666654E-005    -1.3883030037481530E-021
   6.5666666666666659E-005     1.1892864482757077E-022
   6.5866666666666664E-005     1.9488508517687878E-021
   6.6066666666666655E-005     3.8638297075851662E-021
   6.6266666666666660E-005     5.5577098095733692E-021
   6.6466666666666665E-005     6.6923334225318970E-021
   6.6666666666666656E-005     6.9478106588789571E-021
   6.6866666666666661E-005     6.0810881473271238E-021
   6.7066666666666666E-005     3.9847309590596709E-021
   6.7266666666666657E-005     7.3594431764717807E-022
   6.7466666666666662E-005    -3.3747131261798726E-021
   6.7666666666666667E-005    -7.8444098194010834E-021
   6.7866666666666658E-005    -1.1995471128449969E-020
   6.8066666666666663E-005    -1.5050985838341356E-020
   6.8266666666666655E-005    -1.6244369970946692E-020
   6.8466666666666659E-005    -1.4951876030025578E-020
   6.8666666666666664E-005    -1.0830733779109250E-020
   6.8866666666666656E-005    -3.9407029784868289E-021
   6.9066666666666660E-005     5.1753455714207322E-021
   6.9266666666666665E-005     1.5474692951250305E-020
   6.9466666666666657E-005     2.5479048256818505E-020
   6.9666666666666661E-005     3.3427166653311991E-020
   6.9866666666666666E-005     3.7509632556036497E-020
   7.0066666666666658E-005     3.6164494708357491E-020
   7.0266666666666662E-005     2.8397268756484562E-020
   7.0466666666666654E-005     1.4076518609139872E-020
   7.0666666666666659E-005    -5.8504368306730248E-021
   7.0866666666666664E-005    -2.9276051222094120E-020
   7.1066666666666655E-005    -5.3029020725345942E-020
   7.1266666666666660E-005    -7.3172080331362585E-020
   7.1466666666666665E-005    -8.5495617429982194E-020
   7.1666666666666656E-005    -8.6167326861466466E-020
   7.1866666666666661E-005    -7.2462947439508824E-020
   7.2066666666666666E-005    -4.3472761436059935E-020
   7.2266666666666657E-005    -6.5928233525036977E-022
   7.2466666666666662E-005     5.1860757357085502E-020
   7.2666666666666667E-005     1.0741891511705500E-019
   7.2866666666666658E-005     1.5734985041153149E-019
   7.3066666666666663E-005     1.9200503453883807E-019
   7.3266666666666654E-005     2.0215653105821268E-019
   7.3466666666666659E-005     1.8064078784388416E-019
   7.3666666666666664E-005     1.2401911169189301E-019
   7.3866666666666655E-005     3.3979703915451807E-020
   7.4066666666666660E-005    -8.1811154648866406E-020
   7.4266666666666665E-005    -2.0967291448932890E-019
   7.4466666666666656E-005    -3.3087490750880773E-019
   7.4666666666666661E-005    -4.2365898133705657E-019
   7.4866666666666666E-005    -4.6621445117258348E-019
   7.5066666666666657E-005    -4.4031563298870132E-019
   7.5266666666666662E-005    -3.3515887590121986E-019
   7.5466666666666653E-005    -1.5080024724603369E-019