  -3.3333333333333335E-005     0.0000000000000000     
  -3.3133333333333337E-005     0.0000000000000000     
  -3.2933333333333332E-005     0.0000000000000000     
  -3.2733333333333334E-005     0.0000000000000000     
  -3.2533333333333336E-005     0.0000000000000000     
  -3.2333333333333338E-005     0.0000000000000000     
  -3.2133333333333333E-005     0.0000000000000000     
  -3.1933333333333335E-005     0.0000000000000000     
  -3.1733333333333337E-005     0.0000000000000000     
  -3.1533333333333332E-005     0.0000000000000000     
  -3.1333333333333334E-005     0.0000000000000000     
  -3.1133333333333336E-005     0.0000000000000000     
  -3.0933333333333338E-005     0.0000000000000000     
  -3.0733333333333333E-005     0.0000000000000000     
  -3.0533333333333335E-005     0.0000000000000000     
  -3.0333333333333337E-005     0.0000000000000000     
  -3.0133333333333335E-005     0.0000000000000000     
  -2.9933333333333334E-005     0.0000000000000000     
  -2.9733333333333336E-005     0.0000000000000000     
  -2.9533333333333334E-005     0.0000000000000000     
  -2.9333333333333336E-005     0.0000000000000000     
  -2.9133333333333334E-005     0.0000000000000000     
  -2.8933333333333336E-005     0.0000000000000000     
  -2.8733333333333335E-005     0.0000000000000000     
  -2.8533333333333333E-005     0.0000000000000000     
  -2.8333333333333335E-005     0.0000000000000000     
  -2.8133333333333337E-005     0.0000000000000000     
  -2.7933333333333336E-005     0.0000000000000000     
  -2.7733333333333334E-005     0.0000000000000000     
  -2.7533333333333336E-005     0.0000000000000000     
  -2.7333333333333335E-005     0.0000000000000000     
  -2.7133333333333333E-005     0.0000000000000000     
  -2.6933333333333335E-005     0.0000000000000000     
  -2.6733333333333337E-005     0.0000000000000000     
  -2.6533333333333336E-005     0.0000000000000000     
  -2.6333333333333334E-005     0.0000000000000000     
  -2.6133333333333336E-005     0.0000000000000000     
  -2.5933333333333335E-005     0.0000000000000000     
  -2.5733333333333333E-005     0.0000000000000000     
  -2.5533333333333335E-005     0.0000000000000000     
  -2.5333333333333337E-005     0.0000000000000000     
  -2.5133333333333336E-005     0.0000000000000000     
  -2.4933333333333334E-005     0.0000000000000000     
  -2.4733333333333336E-005     0.0000000000000000     
  -2.4533333333333334E-005     0.0000000000000000     
  -2.4333333333333333E-005     0.0000000000000000     
  -2.4133333333333335E-005     0.0000000000000000     
  -2.3933333333333337E-005     0.0000000000000000     
  -2.3733333333333335E-005     0.0000000000000000     
  -2.3533333333333334E-005     0.0000000000000000     
  -2.3333333333333336E-005     0.0000000000000000     
  -2.3133333333333338E-005     0.0000000000000000     
  -2.2933333333333336E-005     0.0000000000000000     
  -2.2733333333333335E-005     0.0000000000000000     
  -2.2533333333333337E-005     0.0000000000000000     
  -2.2333333333333335E-005     0.0000000000000000     
  -2.2133333333333334E-005     0.0000000000000000     
  -2.1933333333333336E-005     0.0000000000000000     
  -2.1733333333333338E-005     0.0000000000000000     
  -2.1533333333333336E-005     0.0000000000000000     
  -2.1333333333333335E-005     0.0000000000000000     
  -2.1133333333333337E-005     0.0000000000000000     
  -2.0933333333333335E-005     0.0000000000000000     
  -2.0733333333333334E-005     0.0000000000000000     
  -2.0533333333333336E-005     0.0000000000000000     
  -2.0333333333333337E-005     0.0000000000000000     
  -2.0133333333333336E-005     0.0000000000000000     
  -1.9933333333333334E-005     0.0000000000000000     
  -1.9733333333333336E-005     0.0000000000000000     
  -1.9533333333333335E-005     0.0000000000000000     
  -1.9333333333333333E-005     0.0000000000000000     
  -1.9133333333333335E-005     0.0000000000000000     
  -1.8933333333333337E-005     0.0000000000000000     
  -1.8733333333333336E-005     0.0000000000000000     
  -1.8533333333333334E-005     0.0000000000000000     
  -1.8333333333333336E-005     0.0000000000000000     
  -1.8133333333333335E-005     0.0000000000000000     
  -1.7933333333333337E-005     0.0000000000000000     
  -1.7733333333333335E-005     0.0000000000000000     
  -1.7533333333333337E-005     0.0000000000000000     
  -1.7333333333333336E-005     0.0000000000000000     
  -1.7133333333333334E-005     0.0000000000000000     
  -1.6933333333333336E-005     0.0000000000000000     
  -1.6733333333333335E-005     0.0000000000000000     
  -1.6533333333333337E-005     0.0000000000000000     
  -1.6333333333333335E-005     0.0000000000000000     
  -1.6133333333333337E-005     0.0000000000000000     
  -1.5933333333333336E-005     0.0000000000000000     
  -1.5733333333333334E-005     0.0000000000000000     
  -1.5533333333333336E-005     0.0000000000000000     
  -1.5333333333333334E-005     0.0000000000000000     
  -1.5133333333333336E-005     0.0000000000000000     
  -1.4933333333333335E-005     0.0000000000000000     
  -1.4733333333333337E-005     0.0000000000000000     
  -1.4533333333333335E-005     0.0000000000000000     
  -1.4333333333333337E-005     0.0000000000000000     
  -1.4133333333333336E-005     0.0000000000000000     
  -1.3933333333333334E-005     0.0000000000000000     
  -1.3733333333333336E-005     0.0000000000000000     
  -1.3533333333333335E-005     0.0000000000000000     
  -1.3333333333333337E-005     0.0000000000000000     
  -1.3133333333333335E-005     0.0000000000000000     
  -1.2933333333333337E-005     0.0000000000000000     
  -1.2733333333333336E-005     0.0000000000000000     
  -1.2533333333333338E-005     0.0000000000000000     
  -1.2333333333333336E-005     0.0000000000000000     
  -1.2133333333333335E-005     0.0000000000000000     
  -1.1933333333333337E-005     0.0000000000000000     
  -1.1733333333333335E-005     0.0000000000000000     
  -1.1533333333333337E-005     0.0000000000000000     
  -1.1333333333333336E-005     0.0000000000000000     
  -1.1133333333333337E-005     0.0000000000000000     
  -1.0933333333333336E-005     0.0000000000000000     
  -1.0733333333333334E-005     0.0000000000000000     
  -1.0533333333333336E-005     0.0000000000000000     
  -1.0333333333333335E-005     0.0000000000000000     
  -1.0133333333333337E-005     0.0000000000000000     
  -9.9333333333333354E-006     0.0000000000000000     
  -9.7333333333333373E-006     0.0000000000000000     
  -9.5333333333333358E-006     0.0000000000000000     
  -9.3333333333333343E-006     0.0000000000000000     
  -9.1333333333333362E-006     0.0000000000000000     
  -8.9333333333333348E-006     0.0000000000000000     
  -8.7333333333333367E-006     0.0000000000000000     
  -8.5333333333333352E-006     0.0000000000000000     
  -8.3333333333333371E-006     0.0000000000000000     
  -8.1333333333333356E-006     0.0000000000000000     
  -7.9333333333333376E-006     0.0000000000000000     
  -7.7333333333333361E-006     0.0000000000000000     
  -7.5333333333333346E-006     0.0000000000000000     
  -7.3333333333333365E-006     0.0000000000000000     
  -7.1333333333333351E-006     0.0000000000000000     
  -6.9333333333333370E-006     0.0000000000000000     
  -6.7333333333333355E-006     0.0000000000000000     
  -6.5333333333333374E-006     0.0000000000000000     
  -6.3333333333333359E-006     0.0000000000000000     
  -6.1333333333333379E-006     0.0000000000000000     
  -5.9333333333333364E-006     0.0000000000000000     
  -5.7333333333333349E-006     0.0000000000000000     
  -5.5333333333333368E-006     0.0000000000000000     
  -5.3333333333333354E-006     0.0000000000000000     
  -5.1333333333333373E-006     0.0000000000000000     
  -4.9333333333333358E-006     0.0000000000000000     
  -4.7333333333333377E-006     0.0000000000000000     
  -4.5333333333333362E-006     0.0000000000000000     
  -4.3333333333333348E-006     0.0000000000000000     
  -4.1333333333333367E-006     0.0000000000000000     
  -3.9333333333333352E-006     0.0000000000000000     
  -3.7333333333333371E-006     0.0000000000000000     
  -3.5333333333333356E-006     0.0000000000000000     
  -3.3333333333333376E-006     0.0000000000000000     
  -3.1333333333333361E-006     0.0000000000000000     
  -2.9333333333333346E-006     0.0000000000000000     
  -2.7333333333333365E-006     0.0000000000000000     
  -2.5333333333333384E-006     0.0000000000000000     
  -2.3333333333333336E-006     0.0000000000000000     
  -2.1333333333333355E-006     0.0000000000000000     
  -1.9333333333333374E-006     0.0000000000000000     
  -1.7333333333333393E-006     0.0000000000000000     
  -1.5333333333333345E-006     0.0000000000000000     
  -1.3333333333333364E-006     0.0000000000000000     
  -1.1333333333333383E-006     0.0000000000000000     
  -9.3333333333333343E-007     0.0000000000000000     
  -7.3333333333333535E-007     0.0000000000000000     
  -5.3333333333333726E-007     0.0000000000000000     
  -3.3333333333333918E-007     0.0000000000000000     
  -1.3333333333333432E-007     0.0000000000000000     
   6.6666666666663770E-008     0.0000000000000000     
   2.6666666666666185E-007     0.0000000000000000     
   4.6666666666666672E-007     0.0000000000000000     
   6.6666666666666480E-007     0.0000000000000000     
   8.6666666666666289E-007     0.0000000000000000     
   1.0666666666666610E-006     0.0000000000000000     
   1.2666666666666658E-006     0.0000000000000000     
   1.4666666666666639E-006     0.0000000000000000     
   1.6666666666666620E-006     0.0000000000000000     
   1.8666666666666669E-006     0.0000000000000000     
   2.0666666666666649E-006     0.0000000000000000     
   2.2666666666666630E-006     0.0000000000000000     
   2.4666666666666611E-006     0.0000000000000000     
   2.6666666666666660E-006     0.0000000000000000     
   2.8666666666666641E-006     0.0000000000000000     
   3.0666666666666622E-006     0.0000000000000000     
   3.2666666666666602E-006     0.0000000000000000     
   3.4666666666666651E-006     0.0000000000000000     
   3.6666666666666632E-006     0.0000000000000000     
   3.8666666666666613E-006     0.0000000000000000     
   4.0666666666666661E-006     0.0000000000000000     
   4.2666666666666642E-006     0.0000000000000000     
   4.4666666666666623E-006     0.0000000000000000     
   4.6666666666666604E-006     0.0000000000000000     
   4.8666666666666652E-006     0.0000000000000000     
   5.0666666666666633E-006     0.0000000000000000     
   5.2666666666666614E-006     0.0000000000000000     
   5.4666666666666663E-006     0.0000000000000000     
   5.6666666666666644E-006     0.0000000000000000     
   5.8666666666666624E-006     0.0000000000000000     
   6.0666666666666605E-006     0.0000000000000000     
   6.2666666666666654E-006     0.0000000000000000     
   6.4666666666666635E-006     0.0000000000000000     
   6.6666666666666616E-006     0.0000000000000000     
   6.8666666666666664E-006     0.0000000000000000     
   7.0666666666666645E-006     0.0000000000000000     
   7.2666666666666626E-006     0.0000000000000000     
   7.4666666666666607E-006     0.0000000000000000     
   7.6666666666666655E-006     0.0000000000000000     
   7.8666666666666636E-006     0.0000000000000000     
   8.0666666666666617E-006     0.0000000000000000     
   8.2666666666666598E-006     0.0000000000000000     
   8.4666666666666647E-006     0.0000000000000000     
   8.6666666666666627E-006     0.0000000000000000     
   8.8666666666666608E-006     0.0000000000000000     
   9.0666666666666657E-006     1.5932566057183190E-035
   9.2666666666666638E-006     4.6749086038106566E-035
   9.4666666666666619E-006     9.2127854460010177E-035
   9.6666666666666599E-006     1.6723161198423657E-034
   9.8666666666666648E-006     2.5379868939863615E-034
   1.0066666666666663E-005     3.2876037741030613E-034
   1.0266666666666661E-005     3.6886686712792021E-034
   1.0466666666666666E-005     3.1683700760212950E-034
   1.0666666666666664E-005     1.2789064000372147E-034
   1.0866666666666662E-005    -2.1799588653747401E-034
   1.1066666666666660E-005    -7.2558858172444224E-034
   1.1266666666666665E-005    -1.3464759734566395E-033
   1.1466666666666663E-005    -1.9668836165569074E-033
   1.1666666666666661E-005    -2.4082986430219694E-033
   1.1866666666666666E-005    -2.4401736417124543E-033
   1.2066666666666664E-005    -1.7723764030362666E-033
   1.2266666666666662E-005    -1.8891792155347309E-034
   1.2466666666666660E-005     2.4207574137727472E-033
   1.2666666666666665E-005     5.9312381310340797E-033
   1.2866666666666663E-005     9.8806287860962766E-033
   1.3066666666666661E-005     1.3391028871791982E-032
   1.3266666666666666E-005     1.5174356657745090E-032
   1.3466666666666664E-005     1.3655653221313219E-032
   1.3666666666666662E-005     7.2583734571643501E-033
   1.3866666666666660E-005    -5.1360382432218801E-033
   1.4066666666666665E-005    -2.3581382052230700E-032
   1.4266666666666663E-005    -4.6408255422970853E-032
   1.4466666666666661E-005    -6.9670756714550176E-032
   1.4666666666666666E-005    -8.6931480663154481E-032
   1.4866666666666664E-005    -8.9647090080008867E-032
   1.5066666666666662E-005    -6.8399912139460938E-032
   1.5266666666666661E-005    -1.5111601422458503E-032
   1.5466666666666665E-005     7.3832929479526469E-032
   1.5666666666666663E-005     1.9393444508199496E-031
   1.5866666666666662E-005     3.2916510195200417E-031
   1.6066666666666660E-005     4.4992154423203330E-031
   1.6266666666666665E-005     5.1372610806076818E-031
   1.6466666666666663E-005     4.7003476979211700E-031
   1.6666666666666661E-005     2.7008583733447875E-031
   1.6866666666666666E-005    -1.1822436867364038E-031
   1.7066666666666664E-005    -6.9191036294485249E-031
   1.7266666666666662E-005    -1.3942307157814910E-030
   1.7466666666666660E-005    -2.1009920862755362E-030
   1.7666666666666665E-005    -2.6184516584340640E-030
   1.7866666666666663E-005    -2.6997200716352253E-030
   1.8066666666666661E-005    -2.0850044227088724E-030
   1.8266666666666666E-005    -5.6712251576890429E-031
   1.8466666666666664E-005     1.9226983693575033E-030
   1.8666666666666662E-005     5.2220683900816546E-030
   1.8866666666666660E-005     8.8600323175149648E-030
   1.9066666666666665E-005     1.2024630876482312E-029
   1.9266666666666663E-005     1.3607844596531377E-029
   1.9466666666666661E-005     1.2355428904656818E-029
   1.9666666666666666E-005     7.1341583461009530E-030
   1.9866666666666664E-005    -2.6971823203911221E-030
   2.0066666666666662E-005    -1.6862198261754631E-029
   2.0266666666666660E-005    -3.3775566074719200E-029
   2.0466666666666665E-005    -5.0309909369995592E-029
   2.0666666666666663E-005    -6.1863102688747290E-029
   2.0866666666666661E-005    -6.2856978836548323E-029
   2.1066666666666659E-005    -4.7745491519326454E-029
   2.1266666666666664E-005    -1.2511357007779269E-029
   2.1466666666666662E-005     4.3511822037608289E-029
   2.1666666666666660E-005     1.1582075647533323E-028
   2.1866666666666665E-005     1.9341293503842215E-028
   2.2066666666666663E-005     2.5853435609973914E-028
   2.2266666666666661E-005     2.8808686035376200E-028
   2.2466666666666659E-005     2.5711352535739176E-028
   2.2666666666666664E-005     1.4443181802429099E-028
   2.2866666666666662E-005    -6.0047672974919271E-029
   2.3066666666666660E-005    -3.4743388603344427E-028
   2.3266666666666665E-005    -6.8318363657677727E-028
   2.3466666666666663E-005    -1.0039375910165009E-027
   2.3666666666666661E-005    -1.2203049387642210E-027
   2.3866666666666660E-005    -1.2276215466229481E-027
   2.4066666666666664E-005    -9.2558642753645323E-028
   2.4266666666666662E-005    -2.4582249624305424E-028
   2.4466666666666661E-005     8.1603972489270170E-028
   2.4666666666666665E-005     2.1698329866253409E-027
   2.4866666666666663E-005     3.6102827921302032E-027
   2.5066666666666662E-005     4.8160435894368979E-027
   2.5266666666666660E-005     5.3773489383807580E-027
   2.5466666666666665E-005     4.8581259290937367E-027
   2.5666666666666663E-005     2.8924149387402103E-027
   2.5866666666666661E-005    -6.9362867688891840E-028
   2.6066666666666666E-005    -5.7530081221952992E-027
   2.6266666666666664E-005    -1.1711120079748062E-026
   2.6466666666666662E-005    -1.7516662563408389E-026
   2.6666666666666660E-005    -2.1687225339380061E-026
   2.6866666666666665E-005    -2.2479354162530709E-026
   2.7066666666666663E-005    -1.8195514350206002E-026
   2.7266666666666661E-005    -7.6124977205470531E-027
   2.7466666666666666E-005     9.5197800408407540E-027
   2.7666666666666664E-005     3.1998574142943635E-026
   2.7866666666666662E-005     5.6829897064719369E-026
   2.8066666666666667E-005     7.9171054198160627E-026
   2.8266666666666658E-005     9.2684894780033695E-026
   2.8466666666666663E-005     9.0393617465940156E-026
   2.8666666666666668E-005     6.6038455300638901E-026
   2.8866666666666659E-005     1.5836137694022886E-026
   2.9066666666666664E-005    -5.9613694754606989E-026
   2.9266666666666669E-005    -1.5364986512445352E-025
   2.9466666666666660E-005    -2.5257896374786085E-025
   2.9666666666666665E-005    -3.3591989971316481E-025
   2.9866666666666656E-005    -3.7829393301566078E-025
   3.0066666666666661E-005    -3.5318431783915296E-025
   3.0266666666666666E-005    -2.3845369433468328E-025
   3.0466666666666657E-005    -2.3065795208364756E-026
   3.0666666666666662E-005     2.8602701125587778E-025
   3.0866666666666667E-005     6.5830629895158425E-025
   3.1066666666666658E-005     1.0371673983061957E-024
   3.1266666666666663E-005     1.3421893419950836E-024
   3.1466666666666668E-005     1.4775219801598217E-024
   3.1666666666666659E-005     1.3468627512128392E-024
   3.1866666666666664E-005     8.7423015048505872E-025
   3.2066666666666656E-005     2.8169267664189916E-026
   3.2266666666666660E-005    -1.1545895412635696E-024
   3.2466666666666665E-005    -2.5513441948575643E-024
   3.2666666666666657E-005    -3.9474970461884885E-024
   3.2866666666666661E-005    -5.0480936930474979E-024
   3.3066666666666666E-005    -5.5106939552131302E-024
   3.3266666666666658E-005    -5.0002461237022227E-024
   3.3466666666666662E-005    -3.2621857704760865E-024
   3.3666666666666667E-005    -2.0477459686309809E-025
   3.3866666666666659E-005     4.0234107088197169E-024
   3.4066666666666664E-005     8.9788037791728833E-024
   3.4266666666666668E-005     1.3910348795500313E-023
   3.4466666666666660E-005     1.7806310347611618E-023
   3.4666666666666665E-005     1.9510981965809049E-023
   3.4866666666666656E-005     1.7910867549711422E-023
   3.5066666666666661E-005     1.2175386496264206E-023
   3.5266666666666666E-005     2.0208949923100043E-024
   3.5466666666666657E-005    -1.2048233162395252E-023
   3.5666666666666662E-005    -2.8578101878765045E-023
   3.5866666666666667E-005    -4.5142016254082367E-023
   3.6066666666666658E-005    -5.8504688899802130E-023
   3.6266666666666663E-005    -6.5000806993003360E-023
   3.6466666666666668E-005    -6.1119750178835301E-023
   3.6666666666666659E-005    -4.4244352497369652E-023
   3.6866666666666664E-005    -1.3444319749410138E-023
   3.7066666666666669E-005     2.9816083385433725E-023
   3.7266666666666660E-005     8.1222103299965091E-023
   3.7466666666666665E-005     1.3356971390185550E-022
   3.7666666666666656E-005     1.7727591495601424E-022
   3.7866666666666661E-005     2.0150035660773694E-022
   3.8066666666666666E-005     1.9583812760022674E-022
   3.8266666666666657E-005     1.5242040982366370E-022
   3.8466666666666662E-005     6.8133626083125668E-023
   3.8666666666666667E-005    -5.3436390112389206E-023
   3.8866666666666658E-005    -2.0078438645015835E-022
   3.9066666666666663E-005    -3.5442180039129909E-022
   3.9266666666666668E-005    -4.8829500486061122E-022
   3.9466666666666659E-005    -5.7281404187342079E-022
   3.9666666666666664E-005    -5.7934565870735697E-022
   3.9866666666666655E-005    -4.8570653134952761E-022
   4.0066666666666660E-005    -2.8188289733438065E-022
   4.0266666666666665E-005     2.5035324397973860E-023
   4.0466666666666656E-005     4.0782296313110475E-022
   4.0666666666666661E-005     8.1902194801396782E-022
   4.0866666666666666E-005     1.1945060568956293E-021
   4.1066666666666657E-005     1.4609217269069053E-021
   4.1266666666666662E-005     1.5465394641449578E-021
   4.1466666666666667E-005     1.3943045060537807E-021
   4.1666666666666658E-005     9.7518788203739536E-022
   4.1866666666666663E-005     2.9945629492200396E-022
   4.2066666666666668E-005    -5.7665025352284885E-022
   4.2266666666666660E-005    -1.5510322100159215E-021
   4.2466666666666664E-005    -2.4840270145677934E-021
   4.2666666666666656E-005    -3.2150426302533464E-021
   4.2866666666666661E-005    -3.5861478416698857E-021
   4.3066666666666665E-005    -3.4696696638711956E-021
   4.3266666666666657E-005    -2.7955025204594895E-021
   4.3466666666666662E-005    -1.5730810363999170E-021
   4.3666666666666666E-005     9.6987034106925605E-023
   4.3866666666666658E-005     2.0255837685381936E-021
   4.4066666666666663E-005     3.9539859320049106E-021
   4.4266666666666667E-005     5.5881765517443165E-021
   4.4466666666666659E-005     6.6445956500028540E-021
   4.4666666666666664E-005     6.9004262960354532E-021
   4.4866666666666655E-005     6.2394213410035704E-021
   4.5066666666666660E-005     4.6836198167942020E-021
   4.5266666666666665E-005     2.4024933806300256E-021
   4.5466666666666656E-005    -3.0575902849745569E-022
   4.5666666666666661E-005    -3.0611520992467128E-021
   4.5866666666666666E-005    -5.4715408542000718E-021
   4.6066666666666657E-005    -7.2134220694201423E-021
   4.6266666666666662E-005    -8.1076802441852581E-021
   4.6466666666666667E-005    -8.1718990249639233E-021
   4.6666666666666658E-005    -7.6321628674795058E-021
   4.6866666666666663E-005    -6.8827655052813059E-021
   4.7066666666666668E-005    -6.3914888838779979E-021
   4.7266666666666659E-005    -6.5602212080385278E-021
   4.7466666666666664E-005    -7.5636643963831591E-021
   4.7666666666666655E-005    -9.2001216848714163E-021
   4.7866666666666660E-005    -1.0795455010660003E-020
   4.8066666666666665E-005    -1.1200839749883477E-020
   4.8266666666666656E-005    -8.9162145578324640E-021
   4.8466666666666661E-005    -2.3528853640451102E-021
   4.8666666666666666E-005     9.7776294617526765E-021
   4.8866666666666657E-005     2.7992780668120399E-020
   4.9066666666666662E-005     5.1561738027996118E-020
   4.9266666666666667E-005     7.8122497803551033E-020
   4.9466666666666658E-005     1.0350683549581935E-019
   4.9666666666666663E-005     1.2188057838980494E-019
   4.9866666666666655E-005     1.2627810317068412E-019
   5.0066666666666659E-005     1.0955925787673303E-019
   5.0266666666666664E-005     6.5744386171548531E-020
   5.0466666666666656E-005    -8.4000659725028789E-021
   5.0666666666666660E-005    -1.1173851689929227E-019
   5.0866666666666665E-005    -2.3738979811142019E-019
   5.1066666666666657E-005    -3.7192353861159859E-019
   5.1266666666666661E-005    -4.9545161521236481E-019
   5.1466666666666666E-005    -5.8287979797190937E-019
   5.1666666666666658E-005    -6.0646240704306648E-019
   5.1866666666666662E-005    -5.3962859169304293E-019
   5.2066666666666667E-005    -3.6182524014536880E-019
   5.2266666666666659E-005    -6.3883850178763633E-020
   5.2466666666666664E-005     3.4681087805176565E-019
   5.2666666666666655E-005     8.4224657003733881E-019
   5.2866666666666660E-005     1.3717801978359963E-018
   5.3066666666666665E-005     1.8631366486307642E-018
   5.3266666666666656E-005     2.2271292053785985E-018
   5.3466666666666661E-005     2.3664516495412112E-018
   5.3666666666666666E-005     2.1883606976343101E-018
   5.3866666666666657E-005     1.6204145599474916E-018
   5.4066666666666662E-005     6.2773852637369604E-019
   5.4266666666666667E-005    -7.7038168710540290E-019
   5.4466666666666658E-005    -2.4872917768920923E-018
   5.4666666666666663E-005    -4.3621162807830776E-018
   5.4866666666666668E-005    -6.1621142332576692E-018
   5.5066666666666659E-005    -7.5965115898736235E-018
   5.5266666666666664E-005    -8.3430181044649669E-018
   5.5466666666666655E-005    -8.0866649064674330E-018
   5.5666666666666660E-005    -6.5686809489529953E-018
   5.5866666666666665E-005    -3.6409793955787355E-018
   5.6066666666666656E-005     6.8022727214324841E-019
   5.6266666666666661E-005     6.1698686379100476E-018
   5.6466666666666666E-005     1.2367611608101907E-017
   5.6666666666666657E-005     1.8578564239085932E-017
   5.6866666666666662E-005     2.3908535603295868E-017
   5.7066666666666667E-005     2.7338208402675483E-017
   5.7266666666666658E-005     2.7836139698569128E-017
   5.7466666666666663E-005     2.4504679707679160E-017
   5.7666666666666654E-005     1.6746552742544313E-017
   5.7866666666666659E-005     4.4334792201795587E-018
   5.8066666666666664E-005    -1.1947104417543225E-017
   5.8266666666666655E-005    -3.1194330858134360E-017
   5.8466666666666660E-005    -5.1372415902075307E-017
   5.8666666666666665E-005    -6.9888721565176823E-017
   5.8866666666666656E-005    -8.3686418437361446E-017
   5.9066666666666661E-005    -8.9554212709686009E-017
   5.9266666666666666E-005    -8.4539460024585331E-017
   5.9466666666666657E-005    -6.6432337449456646E-017
   5.9666666666666662E-005    -3.4270999368023295E-017
   5.9866666666666667E-005     1.1198838489788981E-017
   6.0066666666666659E-005     6.7186084275949666E-017
   6.0266666666666663E-005     1.2871672808642938E-016
   6.0466666666666655E-005     1.8876596421172053E-016
   6.0666666666666660E-005     2.3870891937107560E-016
   6.0866666666666664E-005     2.6910639074919068E-016
   6.1066666666666656E-005     2.7079847141022915E-016
   6.1266666666666661E-005     2.3623142740969558E-016
   6.1466666666666665E-005     1.6089042755493673E-016
   6.1666666666666657E-005     4.4668110419888117E-017
   6.1866666666666662E-005    -1.0703461693063022E-016
   6.2066666666666666E-005    -2.8268949050069944E-016
   6.2266666666666658E-005    -4.6470255071488407E-016
   6.2466666666666663E-005    -6.3030977388083497E-016
   6.2666666666666668E-005    -7.5338313172129277E-016
   6.2866666666666659E-005    -8.0711667843361905E-016
   6.3066666666666664E-005    -7.6743990817877391E-016
   6.3266666666666655E-005    -6.1687085501881665E-016
   6.3466666666666660E-005    -3.4839653613673489E-016
   6.3666666666666665E-005     3.1125866773194571E-017
   6.3866666666666656E-005     4.9860996780774335E-016
   6.4066666666666661E-005     1.0139717062133350E-015
   6.4266666666666666E-005     1.5214156982653487E-015
   6.4466666666666657E-005     1.9530754407682833E-015
   6.4666666666666662E-005     2.2350626615463701E-015
   6.4866666666666667E-005     2.2956809979330977E-015
   6.5066666666666658E-005     2.0752233092347474E-015
   6.5266666666666663E-005     1.5364325336289834E-015
   6.5466666666666654E-005     6.7442573793312149E-016
   6.5666666666666659E-005    -4.7532460857124901E-016
   6.5866666666666664E-005    -1.8324069153441988E-015
   6.6066666666666655E-005    -3.2716251599794509E-015
   6.6266666666666660E-005    -4.6289147780662412E-015
   6.6466666666666665E-005    -5.7135336907617948E-015
   6.6666666666666656E-005    -6.3263374641448107E-015
   6.6866666666666661E-005    -6.2831476776807876E-015
   6.7066666666666666E-005    -5.4413476999746243E-015
   6.7266666666666657E-005    -3.7270419531913821E-015
   6.7466666666666662E-005    -1.1594626380358251E-015
   6.7666666666666667E-005     2.1310491332059102E-015
   6.7866666666666658E-005     5.8951155317964882E-015
   6.8066666666666663E-005     9.7695992395670055E-015
   6.8266666666666655E-005     1.3298228383545278E-014
   6.8466666666666659E-005     1.5968238016583758E-014
   6.8666666666666664E-005     1.7261843674289470E-014
   6.8866666666666656E-005     1.6719259779266783E-014
   6.9066666666666660E-005     1.4007839552469988E-014
   6.9266666666666665E-005     8.9900799004065564E-015
   6.9466666666666657E-005     1.7818314250965918E-015
   6.9666666666666661E-005    -7.2084875503593271E-015
   6.9866666666666666E-005    -1.7268384462708168E-014
   7.0066666666666658E-005    -2.7404614290197672E-014
   7.0266666666666662E-005    -3.6405540447493820E-014
   7.0466666666666654E-005    -4.2942913629348198E-014
   7.0666666666666659E-005    -4.5708625279932205E-014
   7.0866666666666664E-005    -4.3576846639600472E-014
   7.1066666666666655E-005    -3.5777109763266909E-014
   7.1266666666666660E-005    -2.2059495885778241E-014
   7.1466666666666665E-005    -2.8305460934656933E-015
   7.1666666666666656E-005     2.0762232739806284E-014
   7.1866666666666661E-005     4.6817577755136480E-014
   7.2066666666666666E-005     7.2754939551243625E-014
   7.2266666666666657E-005     9.5484485932145063E-014
   7.2466666666666662E-005     1.1167093318846869E-013
   7.2666666666666667E-005     1.1807829020105132E-013
   7.2866666666666658E-005     1.1197031528960982E-013
   7.3066666666666663E-005     9.1530434490408319E-014
   7.3266666666666654E-005     5.6255252734761785E-014
   7.3466666666666659E-005     7.2708706798916591E-015
   7.3666666666666664E-005    -5.2479738897647302E-014
   7.3866666666666655E-005    -1.1822453552159246E-013
   7.4066666666666660E-005    -1.8355985947817594E-013
   7.4266666666666665E-005    -2.4087402536975000E-013
   7.4466666666666656E-005    -2.8199098329843852E-013
   7.4666666666666661E-005    -2.9900051618653167E-013
   7.4866666666666666E-005    -2.8521518371897592E-013
   7.5066666666666657E-005    -2.3616793741985942E-013
   7.5266666666666662E-005    -1.5054403307724479E-013
   7.5466666666666653E-005    -3.0929699448324632E-014