  -3.3333333333333335E-005     0.0000000000000000     
  -3.3133333333333337E-005     0.0000000000000000     
  -3.2933333333333332E-005     0.0000000000000000     
  -3.2733333333333334E-005     0.0000000000000000     
  -3.2533333333333336E-005     0.0000000000000000     
  -3.2333333333333338E-005     0.0000000000000000     
  -3.2133333333333333E-005     0.0000000000000000     
  -3.1933333333333335E-005     0.0000000000000000     
  -3.1733333333333337E-005     0.0000000000000000     
  -3.1533333333333332E-005     0.0000000000000000     
  -3.1333333333333334E-005     0.0000000000000000     
  -3.1133333333333336E-005     0.0000000000000000     
  -3.0933333333333338E-005     0.0000000000000000     
  -3.0733333333333333E-005     0.0000000000000000     
  -3.0533333333333335E-005     0.0000000000000000     
  -3.0333333333333337E-005     0.0000000000000000     
  -3.0133333333333335E-005     0.0000000000000000     
  -2.9933333333333334E-005     0.0000000000000000     
  -2.9733333333333336E-005     0.0000000000000000     
  -2.9533333333333334E-005     0.0000000000000000     
  -2.9333333333333336E-005     0.0000000000000000     
  -2.9133333333333334E-005     0.0000000000000000     
  -2.8933333333333336E-005     0.0000000000000000     
  -2.8733333333333335E-005     0.0000000000000000     
  -2.8533333333333333E-005     0.0000000000000000     
  -2.8333333333333335E-005     0.0000000000000000     
  -2.8133333333333337E-005     0.0000000000000000     
  -2.7933333333333336E-005     0.0000000000000000     
  -2.7733333333333334E-005     0.0000000000000000     
  -2.7533333333333336E-005     0.0000000000000000     
  -2.7333333333333335E-005     0.0000000000000000     
  -2.7133333333333333E-005     0.0000000000000000     
  -2.6933333333333335E-005     0.0000000000000000     
  -2.6733333333333337E-005     0.0000000000000000     
  -2.6533333333333336E-005     0.0000000000000000     
  -2.6333333333333334E-005     0.0000000000000000     
  -2.6133333333333336E-005     0.0000000000000000     
  -2.5933333333333335E-005     0.0000000000000000     
  -2.5733333333333333E-005     0.0000000000000000     
  -2.5533333333333335E-005     0.0000000000000000     
  -2.5333333333333337E-005     0.0000000000000000     
  -2.5133333333333336E-005     0.0000000000000000     
  -2.4933333333333334E-005     0.0000000000000000     
  -2.4733333333333336E-005     0.0000000000000000     
  -2.4533333333333334E-005     0.0000000000000000     
  -2.4333333333333333E-005     0.0000000000000000     
  -2.4133333333333335E-005     0.0000000000000000     
  -2.3933333333333337E-005     0.0000000000000000     
  -2.3733333333333335E-005     0.0000000000000000     
  -2.3533333333333334E-005     0.0000000000000000     
  -2.3333333333333336E-005     0.0000000000000000     
  -2.3133333333333338E-005     0.0000000000000000     
  -2.2933333333333336E-005     0.0000000000000000     
  -2.2733333333333335E-005     0.0000000000000000     
  -2.2533333333333337E-005     0.0000000000000000     
  -2.2333333333333335E-005     0.0000000000000000     
  -2.2133333333333334E-005     0.0000000000000000     
  -2.1933333333333336E-005     0.0000000000000000     
  -2.1733333333333338E-005     0.0000000000000000     
  -2.1533333333333336E-005     0.0000000000000000     
  -2.1333333333333335E-005     0.0000000000000000     
  -2.1133333333333337E-005     0.0000000000000000     
  -2.0933333333333335E-005     0.0000000000000000     
  -2.0733333333333334E-005     0.0000000000000000     
  -2.0533333333333336E-005     0.0000000000000000     
  -2.0333333333333337E-005     0.0000000000000000     
  -2.0133333333333336E-005     0.0000000000000000     
  -1.9933333333333334E-005     0.0000000000000000     
  -1.9733333333333336E-005     0.0000000000000000     
  -1.9533333333333335E-005     0.0000000000000000     
  -1.9333333333333333E-005     0.0000000000000000     
  -1.9133333333333335E-005     0.0000000000000000     
  -1.8933333333333337E-005     0.0000000000000000     
  -1.8733333333333336E-005     0.0000000000000000     
  -1.8533333333333334E-005     0.0000000000000000     
  -1.8333333333333336E-005     0.0000000000000000     
  -1.8133333333333335E-005     0.0000000000000000     
  -1.7933333333333337E-005     0.0000000000000000     
  -1.7733333333333335E-005     0.0000000000000000     
  -1.7533333333333337E-005     0.0000000000000000     
  -1.7333333333333336E-005     0.0000000000000000     
  -1.7133333333333334E-005     0.0000000000000000     
  -1.6933333333333336E-005     0.0000000000000000     
  -1.6733333333333335E-005     0.0000000000000000     
  -1.6533333333333337E-005     0.0000000000000000     
  -1.6333333333333335E-005     0.0000000000000000     
  -1.6133333333333337E-005     0.0000000000000000     
  -1.5933333333333336E-005     0.0000000000000000     
  -1.5733333333333334E-005     0.0000000000000000     
  -1.5533333333333336E-005     0.0000000000000000     
  -1.5333333333333334E-005     0.0000000000000000     
  -1.5133333333333336E-005     0.0000000000000000     
  -1.4933333333333335E-005     0.0000000000000000     
  -1.4733333333333337E-005     0.0000000000000000     
  -1.4533333333333335E-005     0.0000000000000000     
  -1.4333333333333337E-005     0.0000000000000000     
  -1.4133333333333336E-005     0.0000000000000000     
  -1.3933333333333334E-005     0.0000000000000000     
  -1.3733333333333336E-005     0.0000000000000000     
  -1.3533333333333335E-005     0.0000000000000000     
  -1.3333333333333337E-005     0.0000000000000000     
  -1.3133333333333335E-005     0.0000000000000000     
  -1.2933333333333337E-005     0.0000000000000000     
  -1.2733333333333336E-005     0.0000000000000000     
  -1.2533333333333338E-005     0.0000000000000000     
  -1.2333333333333336E-005     0.0000000000000000     
  -1.2133333333333335E-005     0.0000000000000000     
  -1.1933333333333337E-005     0.0000000000000000     
  -1.1733333333333335E-005     0.0000000000000000     
  -1.1533333333333337E-005     0.0000000000000000     
  -1.1333333333333336E-005     0.0000000000000000     
  -1.1133333333333337E-005     0.0000000000000000     
  -1.0933333333333336E-005     0.0000000000000000     
  -1.0733333333333334E-005     0.0000000000000000     
  -1.0533333333333336E-005     0.0000000000000000     
  -1.0333333333333335E-005     0.0000000000000000     
  -1.0133333333333337E-005     0.0000000000000000     
  -9.9333333333333354E-006     0.0000000000000000     
  -9.7333333333333373E-006     0.0000000000000000     
  -9.5333333333333358E-006     0.0000000000000000     
  -9.3333333333333343E-006     0.0000000000000000     
  -9.1333333333333362E-006     0.0000000000000000     
  -8.9333333333333348E-006     0.0000000000000000     
  -8.7333333333333367E-006     0.0000000000000000     
  -8.5333333333333352E-006     0.0000000000000000     
  -8.3333333333333371E-006     0.0000000000000000     
  -8.1333333333333356E-006     0.0000000000000000     
  -7.9333333333333376E-006     0.0000000000000000     
  -7.7333333333333361E-006     0.0000000000000000     
  -7.5333333333333346E-006     0.0000000000000000     
  -7.3333333333333365E-006     0.0000000000000000     
  -7.1333333333333351E-006     0.0000000000000000     
  -6.9333333333333370E-006     0.0000000000000000     
  -6.7333333333333355E-006     0.0000000000000000     
  -6.5333333333333374E-006     0.0000000000000000     
  -6.3333333333333359E-006     0.0000000000000000     
  -6.1333333333333379E-006     0.0000000000000000     
  -5.9333333333333364E-006     0.0000000000000000     
  -5.7333333333333349E-006     0.0000000000000000     
  -5.5333333333333368E-006     0.0000000000000000     
  -5.3333333333333354E-006     0.0000000000000000     
  -5.1333333333333373E-006     0.0000000000000000     
  -4.9333333333333358E-006     0.0000000000000000     
  -4.7333333333333377E-006     0.0000000000000000     
  -4.5333333333333362E-006     0.0000000000000000     
  -4.3333333333333348E-006     0.0000000000000000     
  -4.1333333333333367E-006     0.0000000000000000     
  -3.9333333333333352E-006     0.0000000000000000     
  -3.7333333333333371E-006     0.0000000000000000     
  -3.5333333333333356E-006     0.0000000000000000     
  -3.3333333333333376E-006     0.0000000000000000     
  -3.1333333333333361E-006     0.0000000000000000     
  -2.9333333333333346E-006     0.0000000000000000     
  -2.7333333333333365E-006     0.0000000000000000     
  -2.5333333333333384E-006     0.0000000000000000     
  -2.3333333333333336E-006     0.0000000000000000     
  -2.1333333333333355E-006     0.0000000000000000     
  -1.9333333333333374E-006     0.0000000000000000     
  -1.7333333333333393E-006     0.0000000000000000     
  -1.5333333333333345E-006     0.0000000000000000     
  -1.3333333333333364E-006     0.0000000000000000     
  -1.1333333333333383E-006     0.0000000000000000     
  -9.3333333333333343E-007     0.0000000000000000     
  -7.3333333333333535E-007     0.0000000000000000     
  -5.3333333333333726E-007     0.0000000000000000     
  -3.3333333333333918E-007     0.0000000000000000     
  -1.3333333333333432E-007     0.0000000000000000     
   6.6666666666663770E-008     0.0000000000000000     
   2.6666666666666185E-007     0.0000000000000000     
   4.6666666666666672E-007     0.0000000000000000     
   6.6666666666666480E-007     0.0000000000000000     
   8.6666666666666289E-007     0.0000000000000000     
   1.0666666666666610E-006     0.0000000000000000     
   1.2666666666666658E-006     0.0000000000000000     
   1.4666666666666639E-006     0.0000000000000000     
   1.6666666666666620E-006     0.0000000000000000     
   1.8666666666666669E-006     0.0000000000000000     
   2.0666666666666649E-006     0.0000000000000000     
   2.2666666666666630E-006     0.0000000000000000     
   2.4666666666666611E-006     0.0000000000000000     
   2.6666666666666660E-006     0.0000000000000000     
   2.8666666666666641E-006     0.0000000000000000     
   3.0666666666666622E-006     0.0000000000000000     
   3.2666666666666602E-006     0.0000000000000000     
   3.4666666666666651E-006     0.0000000000000000     
   3.6666666666666632E-006     0.0000000000000000     
   3.8666666666666613E-006     0.0000000000000000     
   4.0666666666666661E-006     0.0000000000000000     
   4.2666666666666642E-006     0.0000000000000000     
   4.4666666666666623E-006     0.0000000000000000     
   4.6666666666666604E-006     0.0000000000000000     
   4.8666666666666652E-006     0.0000000000000000     
   5.0666666666666633E-006     0.0000000000000000     
   5.2666666666666614E-006     0.0000000000000000     
   5.4666666666666663E-006     0.0000000000000000     
   5.6666666666666644E-006     0.0000000000000000     
   5.8666666666666624E-006     0.0000000000000000     
   6.0666666666666605E-006     0.0000000000000000     
   6.2666666666666654E-006     0.0000000000000000     
   6.4666666666666635E-006     0.0000000000000000     
   6.6666666666666616E-006     0.0000000000000000     
   6.8666666666666664E-006     0.0000000000000000     
   7.0666666666666645E-006     0.0000000000000000     
   7.2666666666666626E-006     0.0000000000000000     
   7.4666666666666607E-006     0.0000000000000000     
   7.6666666666666655E-006     0.0000000000000000     
   7.8666666666666636E-006     0.0000000000000000     
   8.0666666666666617E-006     0.0000000000000000     
   8.2666666666666598E-006     0.0000000000000000     
   8.4666666666666647E-006     0.0000000000000000     
   8.6666666666666627E-006     0.0000000000000000     
   8.8666666666666608E-006     0.0000000000000000     
   9.0666666666666657E-006    -2.7671116929341863E-035
   9.2666666666666638E-006    -8.1192152454138702E-035
   9.4666666666666619E-006    -1.6000438802534306E-034
   9.6666666666666599E-006    -2.6639525931139893E-034
   9.8666666666666648E-006    -3.7693078133343514E-034
   1.0066666666666663E-005    -4.3961445380964037E-034
   1.0266666666666661E-005    -4.2862785198002333E-034
   1.0466666666666666E-005    -2.5869379685034555E-034
   1.0666666666666664E-005     1.0281866563593935E-034
   1.0866666666666662E-005     6.6514112653855814E-034
   1.1066666666666660E-005     1.3941233512702747E-033
   1.1266666666666665E-005     2.1829163356930120E-033
   1.1466666666666663E-005     2.8287722376271324E-033
   1.1666666666666661E-005     3.0581027366069142E-033
   1.1866666666666666E-005     2.5277938885967937E-033
   1.2066666666666664E-005     9.2792036318873616E-034
   1.2266666666666662E-005    -1.9213686589640607E-033
   1.2466666666666660E-005    -5.9976803778204171E-033
   1.2666666666666665E-005    -1.0837426086367924E-032
   1.2866666666666663E-005    -1.5527213613239047E-032
   1.3066666666666661E-005    -1.8580502884150336E-032
   1.3266666666666666E-005    -1.8095642321162851E-032
   1.3466666666666664E-005    -1.2028330433445522E-032
   1.3666666666666662E-005     1.2912183717473839E-033
   1.3866666666666660E-005     2.2442283945245748E-032
   1.4066666666666665E-005     5.0042416696708914E-032
   1.4266666666666663E-005     8.0013578859130237E-032
   1.4466666666666661E-005     1.0508895986464234E-031
   1.4666666666666666E-005     1.1503983692782772E-031
   1.4866666666666664E-005     9.7889280309782484E-032
   1.5066666666666662E-005     4.2379915628571554E-032
   1.5266666666666661E-005    -5.8319830614704921E-032
   1.5466666666666665E-005    -2.0201709721847498E-031
   1.5666666666666663E-005    -3.7281203004408128E-031
   1.5866666666666662E-005    -5.3771813584014720E-031
   1.6066666666666660E-005    -6.4629732651147704E-031
   1.6266666666666665E-005    -6.3517207181710265E-031
   1.6466666666666663E-005    -4.3885859073825249E-031
   1.6666666666666661E-005    -7.3981323886374274E-033
   1.6866666666666666E-005     6.7057796166386995E-031
   1.7066666666666664E-005     1.5429232279966651E-030
   1.7266666666666662E-005     2.4734501984804719E-030
   1.7466666666666660E-005     3.2340648208071567E-030
   1.7666666666666665E-005     3.5188398941582679E-030
   1.7866666666666663E-005     2.9879178083777388E-030
   1.8066666666666661E-005     1.3448462232729374E-030
   1.8266666666666666E-005    -1.5567051939634460E-030
   1.8466666666666664E-005    -5.5914884606467771E-030
   1.8666666666666662E-005    -1.0253040895329793E-029
   1.8866666666666660E-005    -1.4593066096644820E-029
   1.9066666666666665E-005    -1.7252563196623157E-029
   1.9266666666666663E-005    -1.6623744060515186E-029
   1.9466666666666661E-005    -1.1165041698686448E-029
   1.9666666666666666E-005     1.3988119464050637E-031
   1.9866666666666664E-005     1.7233194058987143E-029
   2.0066666666666662E-005     3.8450469115962019E-029
   2.0266666666666660E-005     6.0160129228078257E-029
   2.0466666666666665E-005     7.6760315253328388E-029
   2.0666666666666663E-005     8.1212174542152398E-029
   2.0866666666666661E-005     6.6229853929622613E-029
   2.1066666666666659E-005     2.6126365160924106E-029
   2.1266666666666664E-005    -4.0864553088144042E-029
   2.1466666666666662E-005    -1.3018731515492488E-028
   2.1666666666666660E-005    -2.2909355578249075E-028
   2.1866666666666665E-005    -3.1606007797926301E-028
   2.2066666666666663E-005    -3.6226942069155637E-028
   2.2266666666666661E-005    -3.3574195052705824E-028
   2.2466666666666659E-005    -2.0827735864570005E-028
   2.2666666666666664E-005     3.5307748669773080E-029
   2.2866666666666662E-005     3.8700743712235140E-028
   2.3066666666666660E-005     8.0675784997047324E-028
   2.3266666666666665E-005     1.2178016150225065E-027
   2.3466666666666663E-005     1.5094500976224238E-027
   2.3666666666666661E-005     1.5499296783795436E-027
   2.3866666666666660E-005     1.2105959407285761E-027
   2.4066666666666664E-005     4.0045360591858254E-028
   2.4266666666666662E-005    -8.9321674518215364E-028
   2.4466666666666661E-005    -2.5657531460478303E-027
   2.4666666666666665E-005    -4.3681689660556351E-027
   2.4866666666666663E-005    -5.9046161718594958E-027
   2.5066666666666662E-005    -6.6657421451373759E-027
   2.5266666666666660E-005    -6.1053939833758763E-027
   2.5466666666666665E-005    -3.7605476982511841E-027
   2.5666666666666663E-005     5.9651303351596011E-028
   2.5866666666666661E-005     6.7974588051499522E-027
   2.6066666666666666E-005     1.4144571853452200E-026
   2.6266666666666664E-005     2.1349352515888408E-026
   2.6466666666666662E-005     2.6588874203729038E-026
   2.6666666666666660E-005     2.7716338245076614E-026
   2.6866666666666665E-005     2.2640126172056289E-026
   2.7066666666666663E-005     9.8509390725462727E-027
   2.7266666666666661E-005    -1.0967397579819642E-026
   2.7466666666666666E-005    -3.8354528145410391E-026
   2.7666666666666664E-005    -6.8667599275248270E-026
   2.7866666666666662E-005    -9.6021788735070219E-026
   2.8066666666666667E-005    -1.1273330164815995E-025
   2.8266666666666658E-005    -1.1036551098923579E-025
   2.8466666666666663E-005    -8.1378293173944840E-026
   2.8666666666666668E-005    -2.1240566748165684E-026
   2.8866666666666659E-005     6.9296956203219087E-026
   2.9066666666666664E-005     1.8222709097318332E-025
   2.9266666666666669E-005     3.0117895848529722E-025
   2.9466666666666660E-005     4.0177003912458548E-025
   2.9666666666666665E-005     4.5390637404061121E-025
   2.9866666666666656E-005     4.2626641355489712E-025
   3.0066666666666661E-005     2.9280298130508024E-025
   3.0266666666666666E-005     4.0583238928958588E-026
   3.0466666666666657E-005    -3.2226530908946801E-025
   3.0666666666666662E-005    -7.6021810530953551E-025
   3.0866666666666667E-005    -1.2076204197942126E-024
   3.1066666666666658E-005    -1.5714933591648511E-024
   3.1266666666666663E-005    -1.7413118406622309E-024
   3.1466666666666668E-005    -1.6061925893723551E-024
   3.1666666666666659E-005    -1.0784808327735253E-024
   3.1866666666666664E-005    -1.2099168924969241E-025
   3.2066666666666656E-005     1.2265987368444066E-024
   3.2266666666666660E-005     2.8281186072522982E-024
   3.2466666666666665E-005     4.4445626413032267E-024
   3.2666666666666657E-005     5.7470469376091132E-024
   3.2866666666666661E-005     6.3530629012048306E-024
   3.3066666666666666E-005     5.8865289841353138E-024
   3.3266666666666658E-005     4.0573325166051256E-024
   3.3466666666666662E-005     7.5056619491893013E-025
   3.3666666666666667E-005    -3.8896297600555485E-024
   3.3866666666666659E-005    -9.4006037608900322E-024
   3.4066666666666664E-005    -1.4986350337056342E-023
   3.4266666666666668E-005    -1.9565018937816688E-023
   3.4466666666666660E-005    -2.1889580610780411E-023
   3.4666666666666665E-005    -2.0741055930763793E-023
   3.4866666666666656E-005    -1.5178873418697340E-023
   3.5066666666666661E-005    -4.8165480290079318E-024
   3.5266666666666666E-005     9.9242267528094884E-024
   3.5466666666666657E-005     2.7638218286404902E-023
   3.5666666666666662E-005     4.5899095531153834E-023
   3.5866666666666667E-005     6.1409375727021764E-023
   3.6066666666666658E-005     7.0365528154162131E-023
   3.6266666666666663E-005     6.9031659026742026E-023
   3.6466666666666668E-005     5.4472246522478538E-023
   3.6666666666666659E-005     2.5348842965257658E-023
   3.6866666666666664E-005    -1.7354665391267243E-023
   3.7066666666666669E-005    -6.9838209348901714E-023
   3.7266666666666660E-005    -1.2538373584281327E-022
   3.7466666666666665E-005    -1.7477507442516983E-022
   3.7666666666666656E-005    -2.0730402522010965E-022
   3.7866666666666661E-005    -2.1233285571871255E-022
   3.8066666666666666E-005    -1.8126739967513876E-022
   3.8266666666666657E-005    -1.0967868904488989E-022
   3.8466666666666662E-005     7.8659135239669095E-025
   3.8666666666666667E-005     1.4111941568740819E-022
   3.8866666666666658E-005     2.9468433015591550E-022
   3.9066666666666663E-005     4.3828354587610404E-022
   3.9266666666666668E-005     5.4467823852699507E-022
   3.9466666666666659E-005     5.8645262650935066E-022
   3.9666666666666664E-005     5.4082460882877973E-022
   3.9866666666666655E-005     3.9473471310620603E-022
   4.0066666666666660E-005     1.4933793268106897E-022
   4.0266666666666665E-005    -1.7706313708177079E-022
   4.0466666666666656E-005    -5.4852661756702525E-022
   4.0666666666666661E-005    -9.1403397102592037E-022
   4.0866666666666666E-005    -1.2132720102235550E-021
   4.1066666666666657E-005    -1.3852217761612322E-021
   4.1266666666666662E-005    -1.3785137574071141E-021
   4.1466666666666667E-005    -1.1619655066899391E-021
   4.1666666666666658E-005    -7.3335271393602255E-022
   4.1866666666666663E-005    -1.2443656002024526E-022
   4.2066666666666668E-005     5.9938136254832645E-022
   4.2266666666666660E-005     1.3456420118389759E-021
   4.2466666666666664E-005     2.0074160873207875E-021
   4.2666666666666656E-005     2.4803838655808655E-021
   4.2866666666666661E-005     2.6816662315214973E-021
   4.3066666666666665E-005     2.5667646648170946E-021
   4.3266666666666657E-005     2.1406737530920865E-021
   4.3466666666666662E-005     1.4597329576989480E-021
   4.3666666666666666E-005     6.2218906050137014E-022
   4.3866666666666658E-005    -2.5236639807720090E-022
   4.4066666666666663E-005    -1.0518303259273031E-021
   4.4266666666666667E-005    -1.7031277227426045E-021
   4.4466666666666659E-005    -2.1987936924403070E-021
   4.4666666666666664E-005    -2.6100779500315808E-021
   4.4866666666666655E-005    -3.0790027214890925E-021
   4.5066666666666660E-005    -3.7848315357056512E-021
   4.5266666666666665E-005    -4.8854635992638615E-021
   4.5466666666666656E-005    -6.4407545979389198E-021
   4.5666666666666661E-005    -8.3316708989831013E-021
   4.5866666666666666E-005    -1.0195102023911934E-020
   4.6066666666666657E-005    -1.1397394503973555E-020
   4.6266666666666662E-005    -1.1068789735494762E-020
   4.6466666666666667E-005    -8.2147193541541806E-021
   4.6666666666666658E-005    -1.9081653190275779E-021
   4.6866666666666663E-005     8.4494019646041252E-021
   4.7066666666666668E-005     2.2830493483606137E-020
   4.7266666666666659E-005     4.0298804802208612E-020
   4.7466666666666664E-005     5.8807572006496414E-020
   4.7666666666666655E-005     7.5151859579325830E-020
   4.7866666666666660E-005     8.5141907245236277E-020
   4.8066666666666665E-005     8.4043062424944935E-020
   4.8266666666666656E-005     6.7291356088690475E-020
   4.8466666666666661E-005     3.1443329050468408E-020
   4.8666666666666666E-005    -2.4739668342644006E-020
   4.8866666666666657E-005    -9.9230563760513084E-020
   4.9066666666666662E-005    -1.8590391836170887E-019
   4.9266666666666667E-005    -2.7416063882699892E-019
   4.9466666666666658E-005    -3.4923007115075355E-019
   4.9666666666666663E-005    -3.9331797061921737E-019
   4.9866666666666655E-005    -3.8767179085429526E-019
   5.0066666666666659E-005    -3.1549904163812477E-019
   5.0266666666666664E-005    -1.6550493359781229E-019
   5.0466666666666656E-005     6.4359369171056520E-020
   5.0666666666666660E-005     3.6350707927644810E-019
   5.0866666666666665E-005     7.0636400815081614E-019
   5.1066666666666657E-005     1.0517646983545437E-018
   5.1266666666666661E-005     1.3447268423121433E-018
   5.1466666666666666E-005     1.5210335656377676E-018
   5.1666666666666658E-005     1.5147194892269972E-018
   5.1866666666666662E-005     1.2681185438563103E-018
   5.2066666666666667E-005     7.4362136031354676E-019
   5.2266666666666659E-005    -6.4225850587963097E-020
   5.2466666666666664E-005    -1.1180975524460898E-018
   5.2666666666666655E-005    -2.3308384222435063E-018
   5.2866666666666660E-005    -3.5641231497342898E-018
   5.3066666666666665E-005    -4.6346789100642007E-018
   5.3266666666666656E-005    -5.3292670199183470E-018
   5.3466666666666661E-005    -5.4286167881599473E-018
   5.3666666666666666E-005    -4.7391737417158807E-018
   5.3866666666666657E-005    -3.1300229001695236E-018
   5.4066666666666662E-005    -5.7082327865243100E-019
   5.4266666666666667E-005     2.8347066001885982E-018
   5.4466666666666658E-005     6.8260445480687627E-018
   5.4666666666666663E-005     1.0980260976005519E-017
   5.4866666666666668E-005     1.4729140292227509E-017
   5.5066666666666659E-005     1.7402707146007102E-017
   5.5266666666666664E-005     1.8299933412831120E-017
   5.5466666666666655E-005     1.6783559148788711E-017
   5.5666666666666660E-005     1.2391530362694490E-017
   5.5866666666666665E-005     4.9531686749057992E-018
   5.6066666666666656E-005    -5.3057858438698042E-018
   5.6266666666666661E-005    -1.7687601383860166E-017
   5.6466666666666666E-005    -3.0995390612092907E-017
   5.6666666666666657E-005    -4.3571176283414197E-017
   5.6866666666666662E-005    -5.3410939655985690E-017
   5.7066666666666667E-005    -5.8360252428466073E-017
   5.7266666666666658E-005    -5.6383310616799038E-017
   5.7466666666666663E-005    -4.5885842704296832E-017
   5.7666666666666654E-005    -2.6059312729413372E-017
   5.7866666666666659E-005     2.7972332504884147E-018
   5.8066666666666664E-005     3.9029534512746898E-017
   5.8266666666666655E-005     7.9508898263617539E-017
   5.8466666666666660E-005     1.1969098322850397E-016
   5.8666666666666665E-005     1.5388932966896551E-016
   5.8866666666666656E-005     1.7577901683640118E-016
   5.9066666666666661E-005     1.7911708103730177E-016
   5.9266666666666666E-005     1.5863304504583461E-016
   5.9466666666666657E-005     1.1100636765519543E-016
   5.9666666666666662E-005     3.5816917214823648E-017
   5.9866666666666667E-005    -6.3670672551717706E-017
   6.0066666666666659E-005    -1.8003766026717939E-016
   6.0266666666666663E-005    -3.0169799509804961E-016
   6.0466666666666655E-005    -4.1345300752971984E-016
   6.0666666666666660E-005    -4.9767447285706018E-016
   6.0866666666666664E-005    -5.3610462237178380E-016
   6.1066666666666656E-005    -5.1217435342507372E-016
   6.1266666666666661E-005    -4.1364928094546642E-016
   6.1466666666666665E-005    -2.3532195225236087E-016
   6.1666666666666657E-005     1.8600755840559505E-017
   6.1866666666666662E-005     3.3280655063538467E-016
   6.2066666666666666E-005     6.8027158875815625E-016
   6.2266666666666658E-005     1.0230708517700959E-015
   6.2466666666666663E-005     1.3148249977047353E-015
   6.2666666666666668E-005     1.5048360871140298E-015
   6.2866666666666659E-005     1.5437517453262078E-015
   6.3066666666666664E-005     1.3903640312155842E-015
   6.3266666666666655E-005     1.0189053554937361E-015
   6.3466666666666660E-005     4.2600254179712114E-016
   6.3666666666666665E-005    -3.6369839808712064E-016
   6.3866666666666656E-005    -1.2942683551078206E-015
   6.4066666666666661E-005    -2.2785478507507482E-015
   6.4266666666666666E-005    -3.2022521028081397E-015
   6.4466666666666657E-005    -3.9325101233386468E-015
   6.4666666666666662E-005    -4.3307189465677329E-015
   6.4866666666666667E-005    -4.2690320781180440E-015
   6.5066666666666658E-005    -3.6491593912737173E-015
   6.5266666666666663E-005    -2.4215966807071857E-015
   6.5466666666666654E-005    -6.0291233438321701E-016
   6.5666666666666659E-005     1.7115344667380629E-015
   6.5866666666666664E-005     4.3420704586103614E-015
   6.6066666666666655E-005     7.0286552558771875E-015
   6.6266666666666660E-005     9.4458649411923064E-015
   6.6466666666666665E-005     1.1229427489874849E-014
   6.6666666666666656E-005     1.2013459820578269E-014
   6.6866666666666661E-005     1.1476030968072572E-014
   6.7066666666666666E-005     9.3891196629568990E-015
   6.7266666666666657E-005     5.6676448338113458E-015
   6.7466666666666662E-005     4.1122276977959926E-016
   6.7666666666666667E-005    -6.0681317521520724E-015
   6.7866666666666658E-005    -1.3238785305372865E-014
   6.8066666666666663E-005    -2.0368001583297504E-014
   6.8266666666666655E-005    -2.6569324607724105E-014
   6.8466666666666659E-005    -3.0879026549288091E-014
   6.8666666666666664E-005    -3.2358247618923322E-014
   6.8866666666666656E-005    -3.0213583913397957E-014
   6.9066666666666660E-005    -2.3925092728369415E-014
   6.9266666666666665E-005    -1.3367544477750886E-014
   6.9466666666666657E-005     1.0913637301754211E-015
   6.9666666666666661E-005     1.8532562501760372E-014
   6.9866666666666666E-005     3.7482200638616972E-014
   7.0066666666666658E-005     5.5974915322406713E-014
   7.0266666666666662E-005     7.1689527957660010E-014
   7.0466666666666654E-005     8.2155541592833503E-014
   7.0666666666666659E-005     8.5019475183981119E-014
   7.0866666666666664E-005     7.8351184589799117E-014
   7.1066666666666655E-005     6.0961117067954290E-014
   7.1266666666666660E-005     3.2692795139902669E-014
   7.1466666666666665E-005    -5.3494865533284218E-015
   7.1666666666666656E-005    -5.0677483178851804E-014
   7.1866666666666661E-005    -9.9435691343179033E-014
   7.2066666666666666E-005    -1.4658319859566643E-013
   7.2266666666666657E-005    -1.8625133716126258E-013
   7.2466666666666662E-005    -2.1226919419241319E-013
   7.2666666666666667E-005    -2.1882749247619654E-013
   7.2866666666666658E-005    -2.0122976635700285E-013
   7.3066666666666663E-005    -1.5665970582411093E-013
   7.3266666666666654E-005    -8.4878101996952587E-014
   7.3466666666666659E-005     1.1245020519400854E-014
   7.3666666666666664E-005     1.2545612335448930E-013
   7.3866666666666655E-005     2.4818263221447479E-013
   7.4066666666666660E-005     3.6699265046173657E-013
   7.4266666666666665E-005     4.6747143916253675E-013
   7.4466666666666656E-005     5.3449280591755244E-013
   7.4666666666666661E-005     5.5381345126157000E-013
   7.4866666666666666E-005     5.1386857009144693E-013
   7.5066666666666657E-005     4.0760203914337600E-013
   7.5266666666666662E-005     2.3412925786482630E-013
   7.5466666666666653E-005     1.2821846260956827E-017