  -3.3333333333333335E-005     0.0000000000000000     
  -3.3133333333333337E-005     0.0000000000000000     
  -3.2933333333333332E-005     0.0000000000000000     
  -3.2733333333333334E-005     0.0000000000000000     
  -3.2533333333333336E-005     0.0000000000000000     
  -3.2333333333333338E-005     0.0000000000000000     
  -3.2133333333333333E-005     0.0000000000000000     
  -3.1933333333333335E-005     0.0000000000000000     
  -3.1733333333333337E-005     0.0000000000000000     
  -3.1533333333333332E-005     0.0000000000000000     
  -3.1333333333333334E-005     0.0000000000000000     
  -3.1133333333333336E-005     0.0000000000000000     
  -3.0933333333333338E-005     0.0000000000000000     
  -3.0733333333333333E-005     0.0000000000000000     
  -3.0533333333333335E-005     0.0000000000000000     
  -3.0333333333333337E-005     0.0000000000000000     
  -3.0133333333333335E-005     0.0000000000000000     
  -2.9933333333333334E-005     0.0000000000000000     
  -2.9733333333333336E-005     0.0000000000000000     
  -2.9533333333333334E-005     0.0000000000000000     
  -2.9333333333333336E-005     0.0000000000000000     
  -2.9133333333333334E-005     0.0000000000000000     
  -2.8933333333333336E-005     0.0000000000000000     
  -2.8733333333333335E-005     0.0000000000000000     
  -2.8533333333333333E-005     0.0000000000000000     
  -2.8333333333333335E-005     0.0000000000000000     
  -2.8133333333333337E-005     0.0000000000000000     
  -2.7933333333333336E-005     0.0000000000000000     
  -2.7733333333333334E-005     0.0000000000000000     
  -2.7533333333333336E-005     0.0000000000000000     
  -2.7333333333333335E-005     0.0000000000000000     
  -2.7133333333333333E-005     0.0000000000000000     
  -2.6933333333333335E-005     0.0000000000000000     
  -2.6733333333333337E-005     0.0000000000000000     
  -2.6533333333333336E-005     0.0000000000000000     
  -2.6333333333333334E-005     0.0000000000000000     
  -2.6133333333333336E-005     0.0000000000000000     
  -2.5933333333333335E-005     0.0000000000000000     
  -2.5733333333333333E-005     0.0000000000000000     
  -2.5533333333333335E-005     0.0000000000000000     
  -2.5333333333333337E-005     0.0000000000000000     
  -2.5133333333333336E-005     0.0000000000000000     
  -2.4933333333333334E-005     0.0000000000000000     
  -2.4733333333333336E-005     0.0000000000000000     
  -2.4533333333333334E-005     0.0000000000000000     
  -2.4333333333333333E-005     0.0000000000000000     
  -2.4133333333333335E-005     0.0000000000000000     
  -2.3933333333333337E-005     0.0000000000000000     
  -2.3733333333333335E-005     0.0000000000000000     
  -2.3533333333333334E-005     0.0000000000000000     
  -2.3333333333333336E-005     0.0000000000000000     
  -2.3133333333333338E-005     0.0000000000000000     
  -2.2933333333333336E-005     0.0000000000000000     
  -2.2733333333333335E-005     0.0000000000000000     
  -2.2533333333333337E-005     0.0000000000000000     
  -2.2333333333333335E-005     0.0000000000000000     
  -2.2133333333333334E-005     0.0000000000000000     
  -2.1933333333333336E-005     0.0000000000000000     
  -2.1733333333333338E-005     0.0000000000000000     
  -2.1533333333333336E-005     0.0000000000000000     
  -2.1333333333333335E-005     0.0000000000000000     
  -2.1133333333333337E-005     0.0000000000000000     
  -2.0933333333333335E-005     0.0000000000000000     
  -2.0733333333333334E-005     0.0000000000000000     
  -2.0533333333333336E-005     0.0000000000000000     
  -2.0333333333333337E-005     0.0000000000000000     
  -2.0133333333333336E-005     0.0000000000000000     
  -1.9933333333333334E-005     0.0000000000000000     
  -1.9733333333333336E-005     0.0000000000000000     
  -1.9533333333333335E-005     0.0000000000000000     
  -1.9333333333333333E-005     0.0000000000000000     
  -1.9133333333333335E-005     0.0000000000000000     
  -1.8933333333333337E-005     0.0000000000000000     
  -1.8733333333333336E-005     0.0000000000000000     
  -1.8533333333333334E-005     0.0000000000000000     
  -1.8333333333333336E-005     0.0000000000000000     
  -1.8133333333333335E-005     0.0000000000000000     
  -1.7933333333333337E-005     0.0000000000000000     
  -1.7733333333333335E-005     0.0000000000000000     
  -1.7533333333333337E-005     0.0000000000000000     
  -1.7333333333333336E-005     0.0000000000000000     
  -1.7133333333333334E-005     0.0000000000000000     
  -1.6933333333333336E-005     0.0000000000000000     
  -1.6733333333333335E-005     0.0000000000000000     
  -1.6533333333333337E-005     0.0000000000000000     
  -1.6333333333333335E-005     0.0000000000000000     
  -1.6133333333333337E-005     0.0000000000000000     
  -1.5933333333333336E-005     0.0000000000000000     
  -1.5733333333333334E-005     0.0000000000000000     
  -1.5533333333333336E-005     0.0000000000000000     
  -1.5333333333333334E-005     0.0000000000000000     
  -1.5133333333333336E-005     0.0000000000000000     
  -1.4933333333333335E-005     0.0000000000000000     
  -1.4733333333333337E-005     0.0000000000000000     
  -1.4533333333333335E-005     0.0000000000000000     
  -1.4333333333333337E-005     0.0000000000000000     
  -1.4133333333333336E-005     0.0000000000000000     
  -1.3933333333333334E-005     0.0000000000000000     
  -1.3733333333333336E-005     0.0000000000000000     
  -1.3533333333333335E-005     0.0000000000000000     
  -1.3333333333333337E-005     0.0000000000000000     
  -1.3133333333333335E-005     0.0000000000000000     
  -1.2933333333333337E-005     0.0000000000000000     
  -1.2733333333333336E-005     0.0000000000000000     
  -1.2533333333333338E-005     0.0000000000000000     
  -1.2333333333333336E-005     0.0000000000000000     
  -1.2133333333333335E-005     0.0000000000000000     
  -1.1933333333333337E-005     0.0000000000000000     
  -1.1733333333333335E-005     0.0000000000000000     
  -1.1533333333333337E-005     0.0000000000000000     
  -1.1333333333333336E-005     0.0000000000000000     
  -1.1133333333333337E-005     0.0000000000000000     
  -1.0933333333333336E-005     0.0000000000000000     
  -1.0733333333333334E-005     0.0000000000000000     
  -1.0533333333333336E-005     0.0000000000000000     
  -1.0333333333333335E-005     0.0000000000000000     
  -1.0133333333333337E-005     0.0000000000000000     
  -9.9333333333333354E-006     0.0000000000000000     
  -9.7333333333333373E-006     0.0000000000000000     
  -9.5333333333333358E-006     0.0000000000000000     
  -9.3333333333333343E-006     0.0000000000000000     
  -9.1333333333333362E-006     0.0000000000000000     
  -8.9333333333333348E-006     0.0000000000000000     
  -8.7333333333333367E-006     0.0000000000000000     
  -8.5333333333333352E-006     0.0000000000000000     
  -8.3333333333333371E-006     0.0000000000000000     
  -8.1333333333333356E-006     0.0000000000000000     
  -7.9333333333333376E-006     0.0000000000000000     
  -7.7333333333333361E-006     0.0000000000000000     
  -7.5333333333333346E-006     0.0000000000000000     
  -7.3333333333333365E-006     0.0000000000000000     
  -7.1333333333333351E-006     0.0000000000000000     
  -6.9333333333333370E-006     0.0000000000000000     
  -6.7333333333333355E-006     0.0000000000000000     
  -6.5333333333333374E-006     0.0000000000000000     
  -6.3333333333333359E-006     0.0000000000000000     
  -6.1333333333333379E-006     0.0000000000000000     
  -5.9333333333333364E-006     0.0000000000000000     
  -5.7333333333333349E-006     0.0000000000000000     
  -5.5333333333333368E-006     0.0000000000000000     
  -5.3333333333333354E-006     0.0000000000000000     
  -5.1333333333333373E-006     0.0000000000000000     
  -4.9333333333333358E-006     0.0000000000000000     
  -4.7333333333333377E-006     0.0000000000000000     
  -4.5333333333333362E-006     0.0000000000000000     
  -4.3333333333333348E-006     0.0000000000000000     
  -4.1333333333333367E-006     0.0000000000000000     
  -3.9333333333333352E-006     0.0000000000000000     
  -3.7333333333333371E-006     0.0000000000000000     
  -3.5333333333333356E-006     0.0000000000000000     
  -3.3333333333333376E-006     0.0000000000000000     
  -3.1333333333333361E-006     0.0000000000000000     
  -2.9333333333333346E-006     0.0000000000000000     
  -2.7333333333333365E-006     0.0000000000000000     
  -2.5333333333333384E-006     0.0000000000000000     
  -2.3333333333333336E-006     0.0000000000000000     
  -2.1333333333333355E-006     0.0000000000000000     
  -1.9333333333333374E-006     0.0000000000000000     
  -1.7333333333333393E-006     0.0000000000000000     
  -1.5333333333333345E-006     0.0000000000000000     
  -1.3333333333333364E-006     0.0000000000000000     
  -1.1333333333333383E-006     0.0000000000000000     
  -9.3333333333333343E-007     0.0000000000000000     
  -7.3333333333333535E-007     0.0000000000000000     
  -5.3333333333333726E-007     0.0000000000000000     
  -3.3333333333333918E-007     0.0000000000000000     
  -1.3333333333333432E-007     0.0000000000000000     
   6.6666666666663770E-008     0.0000000000000000     
   2.6666666666666185E-007     0.0000000000000000     
   4.6666666666666672E-007     0.0000000000000000     
   6.6666666666666480E-007     0.0000000000000000     
   8.6666666666666289E-007     0.0000000000000000     
   1.0666666666666610E-006     0.0000000000000000     
   1.2666666666666658E-006     0.0000000000000000     
   1.4666666666666639E-006     0.0000000000000000     
   1.6666666666666620E-006     0.0000000000000000     
   1.8666666666666669E-006     0.0000000000000000     
   2.0666666666666649E-006     0.0000000000000000     
   2.2666666666666630E-006     0.0000000000000000     
   2.4666666666666611E-006     0.0000000000000000     
   2.6666666666666660E-006     0.0000000000000000     
   2.8666666666666641E-006     0.0000000000000000     
   3.0666666666666622E-006     0.0000000000000000     
   3.2666666666666602E-006     0.0000000000000000     
   3.4666666666666651E-006     0.0000000000000000     
   3.6666666666666632E-006     0.0000000000000000     
   3.8666666666666613E-006     0.0000000000000000     
   4.0666666666666661E-006     0.0000000000000000     
   4.2666666666666642E-006     0.0000000000000000     
   4.4666666666666623E-006     0.0000000000000000     
   4.6666666666666604E-006     0.0000000000000000     
   4.8666666666666652E-006     0.0000000000000000     
   5.0666666666666633E-006     0.0000000000000000     
   5.2666666666666614E-006     0.0000000000000000     
   5.4666666666666663E-006     0.0000000000000000     
   5.6666666666666644E-006     0.0000000000000000     
   5.8666666666666624E-006     0.0000000000000000     
   6.0666666666666605E-006     0.0000000000000000     
   6.2666666666666654E-006     0.0000000000000000     
   6.4666666666666635E-006     0.0000000000000000     
   6.6666666666666616E-006     0.0000000000000000     
   6.8666666666666664E-006     0.0000000000000000     
   7.0666666666666645E-006     0.0000000000000000     
   7.2666666666666626E-006     0.0000000000000000     
   7.4666666666666607E-006     0.0000000000000000     
   7.6666666666666655E-006     0.0000000000000000     
   7.8666666666666636E-006     0.0000000000000000     
   8.0666666666666617E-006     0.0000000000000000     
   8.2666666666666598E-006     0.0000000000000000     
   8.4666666666666647E-006     0.0000000000000000     
   8.6666666666666627E-006     0.0000000000000000     
   8.8666666666666608E-006     0.0000000000000000     
   9.0666666666666657E-006     0.0000000000000000     
   9.2666666666666638E-006     0.0000000000000000     
   9.4666666666666619E-006     0.0000000000000000     
   9.6666666666666599E-006     0.0000000000000000     
   9.8666666666666648E-006     9.3471208313583370E-037
   1.0066666666666663E-005     2.1728170771258661E-036
   1.0266666666666661E-005     3.5082824050720506E-036
   1.0466666666666666E-005     4.5952326295693531E-036
   1.0666666666666664E-005     4.5952326295693531E-036
   1.0866666666666662E-005    -1.3347111289339871E-035
   1.1066666666666660E-005    -3.7396450054725054E-035
   1.1266666666666665E-005    -6.7046403816968252E-035
   1.1466666666666663E-005    -8.5411442489621450E-035
   1.1666666666666661E-005    -9.0458199044080248E-035
   1.1866666666666666E-005    -8.1556056347383252E-035
   1.2066666666666664E-005    -1.0490055194003734E-035
   1.2266666666666662E-005     8.9827937773666464E-035
   1.2466666666666660E-005     2.1119464152750934E-034
   1.2666666666666665E-005     3.2510952613716731E-034
   1.2866666666666663E-005     4.2721174862926711E-034
   1.3066666666666661E-005     4.6195724942316229E-034
   1.3266666666666666E-005     4.0538410423144344E-034
   1.3466666666666664E-005     2.1586925195294341E-034
   1.3666666666666662E-005    -1.0495790464231764E-034
   1.3866666666666660E-005    -5.5038128648762453E-034
   1.4066666666666665E-005    -1.0768927826493601E-033
   1.4266666666666663E-005    -1.6075195651471796E-033
   1.4466666666666661E-005    -2.0353546931243671E-033
   1.4666666666666666E-005    -2.2332640444356768E-033
   1.4866666666666664E-005    -2.0675384427529351E-033
   1.5066666666666662E-005    -1.4197072511319525E-033
   1.5266666666666661E-005    -2.0825719134739983E-034
   1.5466666666666665E-005     1.5855334126829872E-033
   1.5666666666666663E-005     3.8905762645867423E-033
   1.5866666666666662E-005     6.4952381165067055E-033
   1.6066666666666660E-005     9.0810803038700038E-033
   1.6266666666666665E-005     1.1144961122481958E-032
   1.6466666666666663E-005     1.2034123416543168E-032
   1.6666666666666661E-005     1.0955791755340005E-032
   1.6866666666666666E-005     7.0705030112800550E-033
   1.7066666666666664E-005    -3.3857180631333744E-034
   1.7266666666666662E-005    -1.1616576802871553E-032
   1.7466666666666660E-005    -2.6451946603778419E-032
   1.7666666666666665E-005    -4.3468073687863623E-032
   1.7866666666666663E-005    -5.9920554169465417E-032
   1.8066666666666661E-005    -7.1597274406112823E-032
   1.8266666666666666E-005    -7.3035062688905841E-032
   1.8466666666666664E-005    -5.8200447408435409E-032
   1.8666666666666662E-005    -2.1885766716000075E-032
   1.8866666666666660E-005     3.8541097849619456E-032
   1.9066666666666665E-005     1.2095491274622197E-031
   1.9266666666666663E-005     2.1649131180845505E-031
   1.9466666666666661E-005     3.0836052114442785E-031
   1.9666666666666666E-005     3.7222564644211709E-031
   1.9866666666666664E-005     3.7883864852142505E-031
   2.0066666666666662E-005     2.9930510041286836E-031
   2.0266666666666660E-005     1.1275513435262602E-031
   2.0466666666666665E-005    -1.8446402782482117E-031
   2.0666666666666663E-005    -5.7004230267702476E-031
   2.0866666666666661E-005    -9.8991256892915644E-031
   2.1066666666666659E-005    -1.3583208679966392E-030
   2.1266666666666664E-005    -1.5662703325554090E-030
   2.1466666666666662E-005    -1.4995793658581170E-030
   2.1666666666666660E-005    -1.0656906711955931E-030
   2.1866666666666665E-005    -2.2553387263181655E-031
   2.2066666666666663E-005     9.7609214078721671E-031
   2.2266666666666661E-005     2.3903372935835483E-030
   2.2466666666666659E-005     3.7636319847791541E-030
   2.2666666666666664E-005     4.7640250732611459E-030
   2.2866666666666662E-005     5.0374059388104146E-030
   2.3066666666666660E-005     4.2892972598228060E-030
   2.3266666666666665E-005     2.3792323514315562E-030
   2.3466666666666663E-005    -5.9348814876123771E-031
   2.3666666666666661E-005    -4.2390951874833684E-030
   2.3866666666666660E-005    -7.8877702194413713E-030
   2.4066666666666664E-005    -1.0679269504565070E-029
   2.4266666666666662E-005    -1.1733771820529537E-029
   2.4466666666666661E-005    -1.0383471491547880E-029
   2.4666666666666665E-005    -6.4196729432869767E-030
   2.4866666666666663E-005    -2.8956314396065461E-031
   2.5066666666666662E-005     6.8321364196345772E-030
   2.5266666666666660E-005     1.3161668318360386E-029
   2.5466666666666665E-005     1.6647562397249288E-029
   2.5666666666666663E-005     1.5513412345655025E-029
   2.5866666666666661E-005     8.9128426707595549E-030
   2.6066666666666666E-005    -2.4596008061577279E-030
   2.6266666666666664E-005    -1.6004124249157203E-029
   2.6466666666666662E-005    -2.7304528730278692E-029
   2.6666666666666660E-005    -3.0821812457995568E-029
   2.6866666666666665E-005    -2.1223752501045646E-029
   2.7066666666666663E-005     4.7940014957607872E-030
   2.7266666666666661E-005     4.6540759144535938E-029
   2.7466666666666666E-005     9.7741739123754279E-029
   2.7666666666666664E-005     1.4594830729956365E-028
   2.7866666666666662E-005     1.7352640835991147E-028
   2.8066666666666667E-005     1.6058045171848630E-028
   2.8266666666666658E-005     8.9765422018170551E-029
   2.8466666666666663E-005    -4.7604378030448093E-029
   2.8666666666666668E-005    -2.4532476372305166E-028
   2.8866666666666659E-005    -4.7760433726429361E-028
   2.9066666666666664E-005    -6.9776369662776640E-028
   2.9266666666666669E-005    -8.4198229013308942E-028
   2.9466666666666660E-005    -8.3901655061172752E-028
   2.9666666666666665E-005    -6.2558932751710891E-028
   2.9866666666666656E-005    -1.6557531491806814E-028
   3.0066666666666661E-005     5.3052325879096751E-028
   3.0266666666666666E-005     1.3906062570616345E-027
   3.0466666666666657E-005     2.2758115188611262E-027
   3.0666666666666662E-005     2.9897961197042510E-027
   3.0866666666666667E-005     3.3050725849373915E-027
   3.1066666666666658E-005     3.0056736787587738E-027
   3.1266666666666663E-005     1.9412445541190143E-027
   3.1466666666666668E-005     8.3341031298836210E-029
   3.1666666666666659E-005    -2.4286321340183089E-027
   3.1866666666666664E-005    -5.2657659500068058E-027
   3.2066666666666656E-005    -7.9246162384503818E-027
   3.2266666666666660E-005    -9.7861584929368636E-027
   3.2466666666666665E-005    -1.0217962001304193E-026
   3.2666666666666657E-005    -8.7085983779362719E-027
   3.2866666666666661E-005    -5.0128439704321298E-027
   3.3066666666666666E-005     7.2203787690558008E-028
   3.3266666666666658E-005     7.8822858390167059E-027
   3.3466666666666662E-005     1.5396079649913913E-026
   3.3666666666666667E-005     2.1843754140052167E-026
   3.3866666666666659E-005     2.5671125444397766E-026
   3.4066666666666664E-005     2.5484445825260289E-026
   3.4266666666666668E-005     2.0382085786571007E-026
   3.4466666666666660E-005     1.0259085227848727E-026
   3.4666666666666665E-005    -3.9883262772158958E-027
   3.4866666666666656E-005    -2.0425972337399748E-026
   3.5066666666666661E-005    -3.6258934558130328E-026
   3.5266666666666666E-005    -4.8232367066675909E-026
   3.5466666666666657E-005    -5.3218584285254907E-026
   3.5666666666666662E-005    -4.8904189979548486E-026
   3.5866666666666667E-005    -3.4450242902805743E-026
   3.6066666666666658E-005    -1.0976933244160292E-026
   3.6266666666666663E-005     1.8269816727460462E-026
   3.6466666666666668E-005     4.8174203982355414E-026
   3.6666666666666659E-005     7.2464787405505433E-026
   3.6866666666666664E-005     8.4832832174448269E-026
   3.7066666666666669E-005     8.0303279138330728E-026
   3.7266666666666660E-005     5.6621896630725547E-026
   3.7466666666666665E-005     1.5368743770655258E-026
   3.7666666666666656E-005    -3.7496105732086023E-026
   3.7866666666666661E-005    -9.1894807442624098E-026
   3.8066666666666666E-005    -1.3482973933765967E-025
   3.8266666666666657E-005    -1.5248596248855814E-025
   3.8466666666666662E-005    -1.3302264389307300E-025
   3.8666666666666667E-005    -6.9660029434847057E-026
   3.8866666666666658E-005     3.6472438529533230E-026
   3.9066666666666663E-005     1.7433169032161732E-025
   3.9266666666666668E-005     3.2238363822525117E-025
   3.9466666666666659E-005     4.4991049773282732E-025
   3.9666666666666664E-005     5.2043490917861866E-025
   3.9866666666666655E-005     4.9718352982006880E-025
   4.0066666666666660E-005     3.5015593012781607E-025
   4.0266666666666665E-005     6.3994504369259615E-026
   4.0466666666666656E-005    -3.5447380959634986E-025
   4.0666666666666661E-005    -8.7039184914309273E-025
   4.0866666666666666E-005    -1.4181834684386446E-024
   4.1066666666666657E-005    -1.9033892300966770E-024
   4.1266666666666662E-005    -2.2100778396630706E-024
   4.1466666666666667E-005    -2.2143209252570281E-024
   4.1666666666666658E-005    -1.8034044630187609E-024
   4.1866666666666663E-005    -8.9944106033217758E-025
   4.2066666666666668E-005     5.1510635097907703E-025
   4.2266666666666660E-005     2.3736221159507751E-024
   4.2466666666666664E-005     4.5078387522328145E-024
   4.2666666666666656E-005     6.6417481271922703E-024
   4.2866666666666661E-005     8.4018829779139798E-024
   4.3066666666666665E-005     9.3478565764624292E-024
   4.3266666666666657E-005     9.0249513532674072E-024
   4.3466666666666662E-005     7.0372963957054744E-024
   4.3666666666666666E-005     3.1361431527616836E-024
   4.3866666666666658E-005    -2.6868568905239190E-024
   4.4066666666666663E-005    -1.0115793735033359E-023
   4.4266666666666667E-005    -1.8453788445955299E-023
   4.4466666666666659E-005    -2.6612389876142740E-023
   4.4666666666666664E-005    -3.3164349855102755E-023
   4.4866666666666655E-005    -3.6471781728873924E-023
   4.5066666666666660E-005    -3.4892425398636282E-023
   4.5266666666666665E-005    -2.7054312910691172E-023
   4.5466666666666656E-005    -1.2174055687917098E-023
   4.5666666666666661E-005     9.6212497338021596E-024
   4.5866666666666666E-005     3.7021778707437634E-023
   4.6066666666666657E-005     6.7373883611638174E-023
   4.6266666666666662E-005     9.6691892843289836E-023
   4.6466666666666667E-005     1.1989453874169786E-022
   4.6666666666666658E-005     1.3129604006816577E-022
   4.6866666666666663E-005     1.2534865993152352E-022
   4.7066666666666668E-005     9.7590765134909350E-023
   4.7266666666666659E-005     4.5706970035409067E-023
   4.7466666666666664E-005    -2.9439932417719001E-023
   4.7666666666666655E-005    -1.2298289763120192E-022
   4.7866666666666660E-005    -2.2562752224351502E-022
   4.8066666666666665E-005    -3.2382192374309949E-022
   4.8266666666666656E-005    -4.0066972390385441E-022
   4.8466666666666661E-005    -4.3765871755207106E-022
   4.8666666666666666E-005    -4.1716597925705274E-022
   4.8866666666666657E-005    -3.2556027025561900E-022
   4.9066666666666662E-005    -1.5657056286982075E-022
   4.9266666666666667E-005     8.5554773516041317E-023
   4.9466666666666658E-005     3.8367970473286015E-022
   4.9666666666666663E-005     7.0682820632016505E-022
   4.9866666666666655E-005     1.0112213316265614E-021
   5.0066666666666659E-005     1.2437137107939269E-021
   5.0266666666666664E-005     1.3477544929907364E-021
   5.0466666666666656E-005     1.2716078324025419E-021
   5.0666666666666660E-005     9.7810240122693767E-022
   5.0866666666666665E-005     4.5470760467925654E-022
   5.1066666666666657E-005    -2.7767684244903602E-022
   5.1266666666666661E-005    -1.1590652248620142E-021
   5.1466666666666666E-005    -2.0897035946049079E-021
   5.1666666666666658E-005    -2.9358495845227011E-021
   5.1866666666666662E-005    -3.5427947726222273E-021
   5.2066666666666667E-005    -3.7548563359201908E-021
   5.2266666666666659E-005    -3.4407603476973208E-021
   5.2466666666666664E-005    -2.5214627937891782E-021
   5.2666666666666655E-005    -9.9623615511453205E-022
   5.2866666666666660E-005     1.0379619240215771E-021
   5.3066666666666665E-005     3.3789118351924678E-021
   5.3266666666666656E-005     5.7276328214515781E-021
   5.3466666666666661E-005     7.7154568855480413E-021
   5.3666666666666666E-005     8.9494536475251710E-021
   5.3866666666666657E-005     9.0726365119295156E-021
   5.4066666666666662E-005     7.8318163176923904E-021
   5.4266666666666667E-005     5.1428621726099034E-021
   5.4466666666666658E-005     1.1411738090445037E-021
   5.4666666666666663E-005    -3.7950129658234426E-021
   5.4866666666666668E-005    -9.0587448859587398E-021
   5.5066666666666659E-005    -1.3871626617645341E-020
   5.5266666666666664E-005    -1.7383289430094241E-020
   5.5466666666666655E-005    -1.8804062605033564E-020
   5.5666666666666660E-005    -1.7553611088097738E-020
   5.5866666666666665E-005    -1.3401631317763234E-020
   5.6066666666666656E-005    -6.5728110746761696E-021
   5.6266666666666661E-005     2.2107849840448416E-021
   5.6466666666666666E-005     1.1770755075029008E-020
   5.6666666666666657E-005     2.0606041642150523E-020
   5.6866666666666662E-005     2.7112624953447032E-020
   5.7066666666666667E-005     2.9864457749780620E-020
   5.7266666666666658E-005     2.7913645979128070E-020
   5.7466666666666663E-005     2.1055158709501336E-020
   5.7666666666666654E-005     9.9965495963307977E-021
   5.7866666666666659E-005    -3.6206773815857895E-021
   5.8066666666666664E-005    -1.7383384749735140E-020
   5.8266666666666655E-005    -2.8458958335605118E-020
   5.8466666666666660E-005    -3.4106449957279952E-020
   5.8666666666666665E-005    -3.2276791065798010E-020
   5.8866666666666656E-005    -2.2198277079609871E-020
   5.9066666666666661E-005    -4.8228123419018556E-021
   5.9266666666666666E-005     1.6991674340012934E-020
   5.9466666666666657E-005     3.8662534921827886E-020
   5.9666666666666662E-005     5.4476325072198050E-020
   5.9866666666666667E-005     5.8571735059039303E-020
   6.0066666666666659E-005     4.6202851660745596E-020
   6.0266666666666663E-005     1.5090936076988253E-020
   6.0466666666666655E-005    -3.3391830531519492E-020
   6.0666666666666660E-005    -9.3491991798577919E-020
   6.0866666666666664E-005    -1.5506242459918387E-019
   6.1066666666666656E-005    -2.0445451634806742E-019
   6.1266666666666661E-005    -2.2636800419006323E-019
   6.1466666666666665E-005    -2.0653619390773954E-019
   6.1666666666666657E-005    -1.3493030898041222E-019
   6.1866666666666662E-005    -8.9885177366291279E-021
   6.2066666666666666E-005     1.6375221542799485E-019
   6.2266666666666658E-005     3.6427951087220777E-019
   6.2466666666666663E-005     5.6256589648883211E-019
   6.2666666666666668E-005     7.2024120369731200E-019
   6.2866666666666659E-005     7.9552916679914549E-019
   6.3066666666666664E-005     7.5009177386008968E-019
   6.3266666666666655E-005     5.5699131954568412E-019
   6.3466666666666660E-005     2.0858548217655138E-019
   6.3666666666666665E-005    -2.7708922008695463E-019
   6.3866666666666656E-005    -8.5295437136804947E-019
   6.4066666666666661E-005    -1.4438611300041734E-018
   6.4266666666666666E-005    -1.9527385069437333E-018
   6.4466666666666657E-005    -2.2720374612195618E-018
   6.4666666666666662E-005    -2.2996851460135342E-018
   6.4866666666666667E-005    -1.9578116056405210E-018
   6.5066666666666658E-005    -1.2116452690760900E-018
   6.5266666666666663E-005    -8.5386352040942768E-020
   6.5466666666666654E-005     1.3282968639977322E-018
   6.5666666666666659E-005     2.8681364842594694E-018
   6.5866666666666664E-005     4.3155216104682718E-018
   6.6066666666666655E-005     5.4176764973783209E-018
   6.6266666666666660E-005     5.9214191506654579E-018
   6.6466666666666665E-005     5.6141074910315947E-018
   6.6666666666666656E-005     4.3665474873245242E-018
   6.6866666666666661E-005     2.1712424016526783E-018
   6.7066666666666666E-005    -8.3115201007147133E-019
   6.7266666666666657E-005    -4.3437731371094080E-018
   6.7466666666666662E-005    -7.9288041040065881E-018
   6.7666666666666667E-005    -1.1048096403679768E-017
   6.7866666666666658E-005    -1.3127579659981939E-017
   6.8066666666666663E-005    -1.3639732672147208E-017
   6.8266666666666655E-005    -1.2194537299814987E-017
   6.8466666666666659E-005    -8.6261884979214700E-018
   6.8666666666666664E-005    -3.0612519312224775E-018
   6.8866666666666656E-005     4.0456870228473487E-018
   6.9066666666666660E-005     1.1920247517414853E-017
   6.9266666666666665E-005     1.9526863945651424E-017
   6.9466666666666657E-005     2.5677644977336505E-017
   6.9666666666666661E-005     2.9183659929809863E-017
   6.9866666666666666E-005     2.9032950930925152E-017
   7.0066666666666658E-005     2.4573008134998490E-017
   7.0266666666666662E-005     1.5671042583935516E-017
   7.0466666666666654E-005     2.8245029137424503E-018
   7.0666666666666659E-005    -1.2802718536472150E-017
   7.0866666666666664E-005    -2.9435744875846623E-017
   7.1066666666666655E-005    -4.4842380831340789E-017
   7.1266666666666660E-005    -5.6578121577222627E-017
   7.1466666666666665E-005    -6.2301291591248419E-017
   7.1666666666666656E-005    -6.0123900756102634E-017
   7.1866666666666661E-005    -4.8953729864802904E-017
   7.2066666666666666E-005    -2.8777970852744456E-017
   7.2266666666666657E-005    -8.4021434236866088E-019
   7.2466666666666662E-005     3.2329017517765201E-017
   7.2666666666666667E-005     6.7053338331247157E-017
   7.2866666666666658E-005     9.8827615443009795E-017
   7.3066666666666663E-005     1.2279291052557783E-016
   7.3266666666666654E-005     1.3432694493344983E-016
   7.3466666666666659E-005     1.2968847340027708E-016
   7.3666666666666664E-005     1.0663882755113584E-016
   7.3866666666666655E-005     6.4959201570393609E-017
   7.4066666666666660E-005     6.7863349155825421E-018
   7.4266666666666665E-005    -6.3296581774051824E-017
   7.4466666666666656E-005    -1.3845278947996633E-016
   7.4666666666666661E-005    -2.1007857047916981E-016
   7.4866666666666666E-005    -2.6856018684710966E-016
   7.5066666666666657E-005    -3.0424626725008457E-016
   7.5266666666666662E-005    -3.0855332390775428E-016
   7.5466666666666653E-005    -2.7510198111743223E-016