  -3.3333333333333335E-005     0.0000000000000000     
  -3.3133333333333337E-005     0.0000000000000000     
  -3.2933333333333332E-005     0.0000000000000000     
  -3.2733333333333334E-005     0.0000000000000000     
  -3.2533333333333336E-005     0.0000000000000000     
  -3.2333333333333338E-005     0.0000000000000000     
  -3.2133333333333333E-005     0.0000000000000000     
  -3.1933333333333335E-005     0.0000000000000000     
  -3.1733333333333337E-005     0.0000000000000000     
  -3.1533333333333332E-005     0.0000000000000000     
  -3.1333333333333334E-005     0.0000000000000000     
  -3.1133333333333336E-005     0.0000000000000000     
  -3.0933333333333338E-005     0.0000000000000000     
  -3.0733333333333333E-005     0.0000000000000000     
  -3.0533333333333335E-005     0.0000000000000000     
  -3.0333333333333337E-005     0.0000000000000000     
  -3.0133333333333335E-005     0.0000000000000000     
  -2.9933333333333334E-005     0.0000000000000000     
  -2.9733333333333336E-005     0.0000000000000000     
  -2.9533333333333334E-005     0.0000000000000000     
  -2.9333333333333336E-005     0.0000000000000000     
  -2.9133333333333334E-005     0.0000000000000000     
  -2.8933333333333336E-005     0.0000000000000000     
  -2.8733333333333335E-005     0.0000000000000000     
  -2.8533333333333333E-005     0.0000000000000000     
  -2.8333333333333335E-005     0.0000000000000000     
  -2.8133333333333337E-005     0.0000000000000000     
  -2.7933333333333336E-005     0.0000000000000000     
  -2.7733333333333334E-005     0.0000000000000000     
  -2.7533333333333336E-005     0.0000000000000000     
  -2.7333333333333335E-005     0.0000000000000000     
  -2.7133333333333333E-005     0.0000000000000000     
  -2.6933333333333335E-005     0.0000000000000000     
  -2.6733333333333337E-005     0.0000000000000000     
  -2.6533333333333336E-005     0.0000000000000000     
  -2.6333333333333334E-005     0.0000000000000000     
  -2.6133333333333336E-005     0.0000000000000000     
  -2.5933333333333335E-005     0.0000000000000000     
  -2.5733333333333333E-005     0.0000000000000000     
  -2.5533333333333335E-005     0.0000000000000000     
  -2.5333333333333337E-005     0.0000000000000000     
  -2.5133333333333336E-005     0.0000000000000000     
  -2.4933333333333334E-005     0.0000000000000000     
  -2.4733333333333336E-005     0.0000000000000000     
  -2.4533333333333334E-005     0.0000000000000000     
  -2.4333333333333333E-005     0.0000000000000000     
  -2.4133333333333335E-005     0.0000000000000000     
  -2.3933333333333337E-005     0.0000000000000000     
  -2.3733333333333335E-005     0.0000000000000000     
  -2.3533333333333334E-005     0.0000000000000000     
  -2.3333333333333336E-005     0.0000000000000000     
  -2.3133333333333338E-005     0.0000000000000000     
  -2.2933333333333336E-005     0.0000000000000000     
  -2.2733333333333335E-005     0.0000000000000000     
  -2.2533333333333337E-005     0.0000000000000000     
  -2.2333333333333335E-005     0.0000000000000000     
  -2.2133333333333334E-005     0.0000000000000000     
  -2.1933333333333336E-005     0.0000000000000000     
  -2.1733333333333338E-005     0.0000000000000000     
  -2.1533333333333336E-005     0.0000000000000000     
  -2.1333333333333335E-005     0.0000000000000000     
  -2.1133333333333337E-005     0.0000000000000000     
  -2.0933333333333335E-005     0.0000000000000000     
  -2.0733333333333334E-005     0.0000000000000000     
  -2.0533333333333336E-005     0.0000000000000000     
  -2.0333333333333337E-005     0.0000000000000000     
  -2.0133333333333336E-005     0.0000000000000000     
  -1.9933333333333334E-005     0.0000000000000000     
  -1.9733333333333336E-005     0.0000000000000000     
  -1.9533333333333335E-005     0.0000000000000000     
  -1.9333333333333333E-005     0.0000000000000000     
  -1.9133333333333335E-005     0.0000000000000000     
  -1.8933333333333337E-005     0.0000000000000000     
  -1.8733333333333336E-005     0.0000000000000000     
  -1.8533333333333334E-005     0.0000000000000000     
  -1.8333333333333336E-005     0.0000000000000000     
  -1.8133333333333335E-005     0.0000000000000000     
  -1.7933333333333337E-005     0.0000000000000000     
  -1.7733333333333335E-005     0.0000000000000000     
  -1.7533333333333337E-005     0.0000000000000000     
  -1.7333333333333336E-005     0.0000000000000000     
  -1.7133333333333334E-005     0.0000000000000000     
  -1.6933333333333336E-005     0.0000000000000000     
  -1.6733333333333335E-005     0.0000000000000000     
  -1.6533333333333337E-005     0.0000000000000000     
  -1.6333333333333335E-005     0.0000000000000000     
  -1.6133333333333337E-005     0.0000000000000000     
  -1.5933333333333336E-005     0.0000000000000000     
  -1.5733333333333334E-005     0.0000000000000000     
  -1.5533333333333336E-005     0.0000000000000000     
  -1.5333333333333334E-005     0.0000000000000000     
  -1.5133333333333336E-005     0.0000000000000000     
  -1.4933333333333335E-005     0.0000000000000000     
  -1.4733333333333337E-005     0.0000000000000000     
  -1.4533333333333335E-005     0.0000000000000000     
  -1.4333333333333337E-005     0.0000000000000000     
  -1.4133333333333336E-005     0.0000000000000000     
  -1.3933333333333334E-005     0.0000000000000000     
  -1.3733333333333336E-005     0.0000000000000000     
  -1.3533333333333335E-005     0.0000000000000000     
  -1.3333333333333337E-005     0.0000000000000000     
  -1.3133333333333335E-005     0.0000000000000000     
  -1.2933333333333337E-005     0.0000000000000000     
  -1.2733333333333336E-005     0.0000000000000000     
  -1.2533333333333338E-005     0.0000000000000000     
  -1.2333333333333336E-005     0.0000000000000000     
  -1.2133333333333335E-005     0.0000000000000000     
  -1.1933333333333337E-005     0.0000000000000000     
  -1.1733333333333335E-005     0.0000000000000000     
  -1.1533333333333337E-005     0.0000000000000000     
  -1.1333333333333336E-005     0.0000000000000000     
  -1.1133333333333337E-005     0.0000000000000000     
  -1.0933333333333336E-005     0.0000000000000000     
  -1.0733333333333334E-005     0.0000000000000000     
  -1.0533333333333336E-005     0.0000000000000000     
  -1.0333333333333335E-005     0.0000000000000000     
  -1.0133333333333337E-005     0.0000000000000000     
  -9.9333333333333354E-006     0.0000000000000000     
  -9.7333333333333373E-006     0.0000000000000000     
  -9.5333333333333358E-006     0.0000000000000000     
  -9.3333333333333343E-006     0.0000000000000000     
  -9.1333333333333362E-006     0.0000000000000000     
  -8.9333333333333348E-006     0.0000000000000000     
  -8.7333333333333367E-006     0.0000000000000000     
  -8.5333333333333352E-006     0.0000000000000000     
  -8.3333333333333371E-006     0.0000000000000000     
  -8.1333333333333356E-006     0.0000000000000000     
  -7.9333333333333376E-006     0.0000000000000000     
  -7.7333333333333361E-006     0.0000000000000000     
  -7.5333333333333346E-006     0.0000000000000000     
  -7.3333333333333365E-006     0.0000000000000000     
  -7.1333333333333351E-006     0.0000000000000000     
  -6.9333333333333370E-006     0.0000000000000000     
  -6.7333333333333355E-006     0.0000000000000000     
  -6.5333333333333374E-006     0.0000000000000000     
  -6.3333333333333359E-006     0.0000000000000000     
  -6.1333333333333379E-006     0.0000000000000000     
  -5.9333333333333364E-006     0.0000000000000000     
  -5.7333333333333349E-006     0.0000000000000000     
  -5.5333333333333368E-006     0.0000000000000000     
  -5.3333333333333354E-006     0.0000000000000000     
  -5.1333333333333373E-006     0.0000000000000000     
  -4.9333333333333358E-006     0.0000000000000000     
  -4.7333333333333377E-006     0.0000000000000000     
  -4.5333333333333362E-006     0.0000000000000000     
  -4.3333333333333348E-006     0.0000000000000000     
  -4.1333333333333367E-006     0.0000000000000000     
  -3.9333333333333352E-006     0.0000000000000000     
  -3.7333333333333371E-006     0.0000000000000000     
  -3.5333333333333356E-006     0.0000000000000000     
  -3.3333333333333376E-006     0.0000000000000000     
  -3.1333333333333361E-006     0.0000000000000000     
  -2.9333333333333346E-006     0.0000000000000000     
  -2.7333333333333365E-006     0.0000000000000000     
  -2.5333333333333384E-006     0.0000000000000000     
  -2.3333333333333336E-006     0.0000000000000000     
  -2.1333333333333355E-006     0.0000000000000000     
  -1.9333333333333374E-006     0.0000000000000000     
  -1.7333333333333393E-006     0.0000000000000000     
  -1.5333333333333345E-006     0.0000000000000000     
  -1.3333333333333364E-006     0.0000000000000000     
  -1.1333333333333383E-006     0.0000000000000000     
  -9.3333333333333343E-007     0.0000000000000000     
  -7.3333333333333535E-007     0.0000000000000000     
  -5.3333333333333726E-007     0.0000000000000000     
  -3.3333333333333918E-007     0.0000000000000000     
  -1.3333333333333432E-007     0.0000000000000000     
   6.6666666666663770E-008     0.0000000000000000     
   2.6666666666666185E-007     0.0000000000000000     
   4.6666666666666672E-007     0.0000000000000000     
   6.6666666666666480E-007     0.0000000000000000     
   8.6666666666666289E-007     0.0000000000000000     
   1.0666666666666610E-006     0.0000000000000000     
   1.2666666666666658E-006     0.0000000000000000     
   1.4666666666666639E-006     0.0000000000000000     
   1.6666666666666620E-006     0.0000000000000000     
   1.8666666666666669E-006     0.0000000000000000     
   2.0666666666666649E-006     0.0000000000000000     
   2.2666666666666630E-006     0.0000000000000000     
   2.4666666666666611E-006     0.0000000000000000     
   2.6666666666666660E-006     0.0000000000000000     
   2.8666666666666641E-006     0.0000000000000000     
   3.0666666666666622E-006     0.0000000000000000     
   3.2666666666666602E-006     0.0000000000000000     
   3.4666666666666651E-006     0.0000000000000000     
   3.6666666666666632E-006     0.0000000000000000     
   3.8666666666666613E-006     0.0000000000000000     
   4.0666666666666661E-006     0.0000000000000000     
   4.2666666666666642E-006     0.0000000000000000     
   4.4666666666666623E-006     0.0000000000000000     
   4.6666666666666604E-006     0.0000000000000000     
   4.8666666666666652E-006     0.0000000000000000     
   5.0666666666666633E-006     0.0000000000000000     
   5.2666666666666614E-006     0.0000000000000000     
   5.4666666666666663E-006     0.0000000000000000     
   5.6666666666666644E-006     0.0000000000000000     
   5.8666666666666624E-006     0.0000000000000000     
   6.0666666666666605E-006     0.0000000000000000     
   6.2666666666666654E-006     0.0000000000000000     
   6.4666666666666635E-006     0.0000000000000000     
   6.6666666666666616E-006     0.0000000000000000     
   6.8666666666666664E-006     0.0000000000000000     
   7.0666666666666645E-006     0.0000000000000000     
   7.2666666666666626E-006     0.0000000000000000     
   7.4666666666666607E-006     0.0000000000000000     
   7.6666666666666655E-006     0.0000000000000000     
   7.8666666666666636E-006     0.0000000000000000     
   8.0666666666666617E-006     0.0000000000000000     
   8.2666666666666598E-006     0.0000000000000000     
   8.4666666666666647E-006     0.0000000000000000     
   8.6666666666666627E-006     0.0000000000000000     
   8.8666666666666608E-006     0.0000000000000000     
   9.0666666666666657E-006     0.0000000000000000     
   9.2666666666666638E-006     0.0000000000000000     
   9.4666666666666619E-006     0.0000000000000000     
   9.6666666666666599E-006     0.0000000000000000     
   9.8666666666666648E-006    -1.6884843831353680E-036
   1.0066666666666663E-005    -3.9250243532564705E-036
   1.0266666666666661E-005    -6.3374384461965013E-036
   1.0466666666666666E-005    -8.3009287067320599E-036
   1.0666666666666664E-005    -8.3009287067320599E-036
   1.0866666666666662E-005     7.9516123080803558E-037
   1.1066666666666660E-005     1.0005607885009242E-035
   1.1266666666666665E-005     2.2619381169075749E-035
   1.1466666666666663E-005     1.7146825031891542E-035
   1.1666666666666661E-005     2.8510304670979891E-036
   1.1866666666666666E-005    -1.3229998072864393E-035
   1.2066666666666664E-005    -6.2150412448608326E-035
   1.2266666666666662E-005    -1.0533721967976120E-034
   1.2466666666666660E-005    -1.3471138857718269E-034
   1.2666666666666665E-005    -1.3663424019573871E-034
   1.2866666666666663E-005    -1.1022604787942080E-034
   1.3066666666666661E-005    -4.1704714336688621E-035
   1.3266666666666666E-005     5.2502203920842319E-035
   1.3466666666666664E-005     1.8521114246317405E-034
   1.3666666666666662E-005     3.1349747866096627E-034
   1.3866666666666660E-005     4.2533688105745364E-034
   1.4066666666666665E-005     4.9875660517088287E-034
   1.4266666666666663E-005     5.1741845042740019E-034
   1.4466666666666661E-005     4.7435178124437750E-034
   1.4666666666666666E-005     3.7252759071689602E-034
   1.4866666666666664E-005     2.1688210564006989E-034
   1.5066666666666662E-005     7.4875740031773498E-036
   1.5266666666666661E-005    -2.7548701934878814E-034
   1.5466666666666665E-005    -6.7949267278290013E-034
   1.5666666666666663E-005    -1.2754257888150788E-033
   1.5866666666666662E-005    -2.1322315906794474E-033
   1.6066666666666660E-005    -3.2758919014425365E-033
   1.6266666666666665E-005    -4.5883449357890519E-033
   1.6466666666666663E-005    -5.7812244807180164E-033
   1.6666666666666661E-005    -6.3063185419143015E-033
   1.6866666666666666E-005    -5.3811545293072513E-033
   1.7066666666666664E-005    -2.1024475025654877E-033
   1.7266666666666662E-005     4.3091955168534831E-033
   1.7466666666666660E-005     1.4140165544099272E-032
   1.7666666666666665E-005     2.6738108948542597E-032
   1.7866666666666663E-005     4.0103359229221046E-032
   1.8066666666666661E-005     5.0678165183935886E-032
   1.8266666666666666E-005     5.3518664998093386E-032
   1.8466666666666664E-005     4.3014788372507163E-032
   1.8666666666666662E-005     1.4239859219992510E-032
   1.8866666666666660E-005    -3.5164957585886887E-032
   1.9066666666666665E-005    -1.0286052820401450E-031
   1.9266666666666663E-005    -1.7996873759323710E-031
   1.9466666666666661E-005    -2.5022661259372073E-031
   1.9666666666666666E-005    -2.9088839629177166E-031
   1.9866666666666664E-005    -2.7596504882022941E-031
   2.0066666666666662E-005    -1.8197089834627517E-031
   2.0266666666666660E-005     4.3198462303559023E-033
   2.0466666666666665E-005     2.7741908831242255E-031
   2.0666666666666663E-005     6.0608907204386037E-031
   2.0866666666666661E-005     9.3035741717864413E-031
   2.1066666666666659E-005     1.1651942931621904E-030
   2.1266666666666664E-005     1.2126664914608263E-030
   2.1466666666666662E-005     9.8272277528178700E-031
   2.1666666666666660E-005     4.2037554074388914E-031
   2.1866666666666665E-005    -4.6568506453588227E-031
   2.2066666666666663E-005    -1.5804006210082255E-030
   2.2266666666666661E-005    -2.7341786070747779E-030
   2.2466666666666659E-005    -3.6571115078940804E-030
   2.2666666666666664E-005    -4.0401801023072784E-030
   2.2866666666666662E-005    -3.6021886502417405E-030
   2.3066666666666660E-005    -2.1734930043314284E-030
   2.3266666666666665E-005     2.2050564852640018E-031
   2.3466666666666663E-005     3.2993075784642356E-030
   2.3666666666666661E-005     6.5158114540655880E-030
   2.3866666666666660E-005     9.1138247452021309E-030
   2.4066666666666664E-005     1.0262882698272165E-029
   2.4266666666666662E-005     9.2595883016532481E-030
   2.4466666666666661E-005     5.7618260556402525E-030
   2.4666666666666665E-005     6.3069831553999969E-034
   2.4866666666666663E-005    -7.0988980294745916E-030
   2.5066666666666662E-005    -1.3954694047086135E-029
   2.5266666666666660E-005    -1.8568272770560680E-029
   2.5466666666666665E-005    -1.8971446644192150E-029
   2.5666666666666663E-005    -1.3822773864426686E-029
   2.5866666666666661E-005    -3.0327671496412720E-030
   2.6066666666666666E-005     1.1756208152065264E-029
   2.6266666666666664E-005     2.7031540197723954E-029
   2.6466666666666662E-005     3.7783197584808142E-029
   2.6666666666666660E-005     3.8471828882751488E-029
   2.6866666666666665E-005     2.4534651770362663E-029
   2.7066666666666663E-005    -5.8062255117058390E-030
   2.7266666666666661E-005    -4.9845038029669123E-029
   2.7466666666666666E-005    -9.9339984125166179E-029
   2.7666666666666664E-005    -1.4066330275385988E-028
   2.7866666666666662E-005    -1.5657938040727043E-028
   2.8066666666666667E-005    -1.2977901800671478E-028
   2.8266666666666658E-005    -4.7855525313727265E-029
   2.8466666666666663E-005     9.1108324820143161E-029
   2.8666666666666668E-005     2.7365028208362972E-028
   2.8866666666666659E-005     4.6833483644195784E-028
   2.9066666666666664E-005     6.2702000457629697E-028
   2.9266666666666669E-005     6.9108153824096906E-028
   2.9466666666666660E-005     6.0277004286753397E-028
   2.9666666666666665E-005     3.2058938372597570E-028
   2.9866666666666656E-005    -1.6385093354236103E-028
   3.0066666666666661E-005    -8.1131474466363927E-028
   3.0266666666666666E-005    -1.5272527199528589E-027
   3.0466666666666657E-005    -2.1652246214544111E-027
   3.0666666666666662E-005    -2.5443175457668004E-027
   3.0866666666666667E-005    -2.4808839615604957E-027
   3.1066666666666658E-005    -1.8314688584048751E-027
   3.1266666666666663E-005    -5.4005824905613706E-028
   3.1466666666666668E-005     1.3204137180120001E-027
   3.1666666666666659E-005     3.5240153825032435E-027
   3.1866666666666664E-005     5.6962240037149860E-027
   3.2066666666666656E-005     7.3541742778503487E-027
   3.2266666666666660E-005     7.9836752653810053E-027
   3.2466666666666665E-005     7.1454350571298603E-027
   3.2666666666666657E-005     4.5939006666754521E-027
   3.2866666666666661E-005     3.8462448400216107E-028
   3.3066666666666666E-005    -5.0576711454457094E-027
   3.3266666666666658E-005    -1.0936234492575501E-026
   3.3466666666666662E-005    -1.6161915677463787E-026
   3.3666666666666667E-005    -1.9517649849588284E-026
   3.3866666666666659E-005    -1.9890941295129196E-026
   3.4066666666666664E-005    -1.6537510535218185E-026
   3.4266666666666668E-005    -9.3232388900160366E-027
   3.4466666666666660E-005     1.1158088911031278E-027
   3.4666666666666665E-005     1.3350195084870463E-026
   3.4866666666666656E-005     2.5306106253153986E-026
   3.5066666666666661E-005     3.4589310452230056E-026
   3.5266666666666666E-005     3.8946297083842590E-026
   3.5466666666666657E-005     3.6784063238998818E-026
   3.5666666666666662E-005     2.7639202439687972E-026
   3.5866666666666667E-005     1.2475450030081424E-026
   3.6066666666666658E-005    -6.2957105286203341E-027
   3.6266666666666663E-005    -2.5132612320787762E-026
   3.6466666666666668E-005    -4.0011397972846952E-026
   3.6666666666666659E-005    -4.7314647581479791E-026
   3.6866666666666664E-005    -4.4792579148802530E-026
   3.7066666666666669E-005    -3.2374500260648468E-026
   3.7266666666666660E-005    -1.2596574075399871E-026
   3.7466666666666665E-005     9.5451722715995331E-027
   3.7666666666666656E-005     2.7408118579752703E-026
   3.7866666666666661E-005     3.4130310501932046E-026
   3.8066666666666666E-005     2.4456449132192514E-026
   3.8266666666666657E-005    -3.3996272711150494E-027
   3.8466666666666662E-005    -4.6310067115047854E-026
   3.8666666666666667E-005    -9.5662857023194659E-026
   3.8866666666666658E-005    -1.3801810557538506E-025
   3.9066666666666663E-005    -1.5713156435940468E-025
   3.9266666666666668E-005    -1.3719709858827629E-025
   3.9466666666666659E-005    -6.6844245900443054E-026
   3.9666666666666664E-005     5.6844910073821856E-026
   3.9866666666666655E-005     2.2519654169579814E-025
   4.0066666666666660E-005     4.1656998182695333E-025
   4.0266666666666665E-005     5.9742502181882772E-025
   4.0466666666666656E-005     7.2611771913670738E-025
   4.0666666666666661E-005     7.5918878973964182E-025
   4.0866666666666666E-005     6.5935937895624773E-025
   4.1066666666666657E-005     4.0397919478585035E-025
   4.1266666666666662E-005    -7.5937399332606992E-027
   4.1466666666666667E-005    -5.4918938221199030E-025
   4.1666666666666658E-005    -1.1667911487074624E-024
   4.1866666666666663E-005    -1.7818687575214536E-024
   4.2066666666666668E-005    -2.2989479510168752E-024
   4.2266666666666660E-005    -2.6165380266477443E-024
   4.2466666666666664E-005    -2.6399778451550289E-024
   4.2666666666666656E-005    -2.2944968033591657E-024
   4.2866666666666661E-005    -1.5369043722688517E-024
   4.3066666666666665E-005    -3.6477852703792892E-025
   4.3266666666666657E-005     1.1773340774905149E-024
   4.3466666666666662E-005     2.9945814716740942E-024
   4.3666666666666666E-005     4.9408642246312584E-024
   4.3866666666666658E-005     6.8199723160652326E-024
   4.4066666666666663E-005     8.3891878393662581E-024
   4.4266666666666667E-005     9.3668673354173504E-024
   4.4466666666666659E-005     9.4467497572627457E-024
   4.4666666666666664E-005     8.3225858908602585E-024
   4.4866666666666655E-005     5.7265594310396183E-024
   4.5066666666666660E-005     1.4832747483111459E-024
   4.5266666666666665E-005    -4.4221909404616114E-024
   4.5466666666666656E-005    -1.1768708978100144E-023
   4.5666666666666661E-005    -2.0028353235054629E-023
   4.5866666666666666E-005    -2.8318475133082327E-023
   4.6066666666666657E-005    -3.5398271410056583E-023
   4.6266666666666662E-005    -3.9731616891067678E-023
   4.6466666666666667E-005    -3.9633006122471431E-023
   4.6666666666666658E-005    -3.3502676520133942E-023
   4.6866666666666663E-005    -2.0140533988942488E-023
   4.7066666666666668E-005     8.9185892374164582E-025
   4.7266666666666659E-005     2.8913004887467574E-023
   4.7466666666666664E-005     6.1837039311847420E-023
   4.7666666666666655E-005     9.6042963240880549E-023
   4.7866666666666660E-005     1.2647498922111084E-022
   4.8066666666666665E-005     1.4703262868052351E-022
   4.8266666666666656E-005     1.5127373423360892E-022
   4.8466666666666661E-005     1.3340226081978242E-022
   4.8666666666666666E-005     8.9451973579773819E-023
   4.8866666666666657E-005     1.8514388740694378E-023
   4.9066666666666662E-005    -7.6192610158201800E-023
   4.9266666666666667E-005    -1.8665011948671105E-022
   4.9466666666666658E-005    -2.9998716675678149E-022
   4.9666666666666663E-005    -3.9923816224193174E-022
   4.9866666666666655E-005    -4.6500081323187410E-022
   5.0066666666666659E-005    -4.7795585304887358E-022
   5.0266666666666664E-005    -4.2204692042403205E-022
   5.0466666666666656E-005    -2.8795490487227334E-022
   5.0666666666666660E-005    -7.6350880899338102E-023
   5.0866666666666665E-005     1.9967957728606546E-022
   5.1066666666666657E-005     5.1366189380793671E-022
   5.1266666666666661E-005     8.2673410465889810E-022
   5.1466666666666666E-005     1.0909418729033181E-021
   5.1666666666666658E-005     1.2548273346879744E-021
   5.1866666666666662E-005     1.2709146445479061E-021
   5.2066666666666667E-005     1.1042680433772315E-021
   5.2266666666666659E-005     7.4091795312596447E-022
   5.2466666666666664E-005     1.9467700007838831E-022
   5.2666666666666655E-005    -4.8918413314232944E-022
   5.2866666666666660E-005    -1.2347517460396369E-021
   5.3066666666666665E-005    -1.9416273597447621E-021
   5.3266666666666656E-005    -2.4965288317066380E-021
   5.3466666666666661E-005    -2.7894739570693691E-021
   5.3666666666666666E-005    -2.7326460835314793E-021
   5.3866666666666657E-005    -2.2791402737314471E-021
   5.4066666666666662E-005    -1.4381528535321730E-021
   5.4266666666666667E-005    -2.8309208857345239E-022
   5.4466666666666658E-005     1.0503707439260270E-021
   5.4666666666666663E-005     2.3780220823129539E-021
   5.4866666666666668E-005     3.4924098605743013E-021
   5.5066666666666659E-005     4.1972287308837853E-021
   5.5266666666666664E-005     4.3458938472542349E-021
   5.5466666666666655E-005     3.8774539538852827E-021
   5.5666666666666660E-005     2.8419276284422447E-021
   5.5866666666666665E-005     1.4075014295569827E-021
   5.6066666666666656E-005    -1.5602949264126052E-022
   5.6266666666666661E-005    -1.5194847410265959E-021
   5.6466666666666666E-005    -2.3591189050528432E-021
   5.6666666666666657E-005    -2.4352526409439665E-021
   5.6866666666666662E-005    -1.6706784532099792E-021
   5.7066666666666667E-005    -2.1107235696636524E-022
   5.7266666666666658E-005     1.5512188103298861E-021
   5.7466666666666663E-005     3.0057190832505475E-021
   5.7666666666666654E-005     3.4133345444091429E-021
   5.7866666666666659E-005     2.0544361352655986E-021
   5.8066666666666664E-005    -1.5803545106508975E-021
   5.8266666666666655E-005    -7.5866340064592775E-021
   5.8466666666666660E-005    -1.5471435927588378E-020
   5.8666666666666665E-005    -2.4054882348898008E-020
   5.8866666666666656E-005    -3.1493631971469289E-020
   5.9066666666666661E-005    -3.5459300617936161E-020
   5.9266666666666666E-005    -3.3481967368893629E-020
   5.9466666666666657E-005    -2.3437572967386168E-020
   5.9666666666666662E-005    -4.1219254067794828E-021
   5.9866666666666667E-005     2.4180512020016633E-020
   6.0066666666666659E-005     5.9250559536261238E-020
   6.0266666666666663E-005     9.6737738662310895E-020
   6.0466666666666655E-005     1.3032633801321571E-019
   6.0666666666666660E-005     1.5233782090840491E-019
   6.0866666666666664E-005     1.5477840438104555E-019
   6.1066666666666656E-005     1.3075693722083784E-019
   6.1266666666666661E-005     7.6106270909847170E-020
   6.1466666666666665E-005    -9.0421439203644261E-021
   6.1666666666666657E-005    -1.1903872184719659E-019
   6.1866666666666662E-005    -2.4217369378654405E-019
   6.2066666666666666E-005    -3.6109217717688782E-019
   6.2266666666666658E-005    -4.5434058367211448E-019
   6.2466666666666663E-005    -4.9905393508124496E-019
   6.2666666666666668E-005    -4.7458877599528205E-019
   6.2866666666666659E-005    -3.6668482284654126E-019
   6.3066666666666664E-005    -1.7154450236748872E-019
   6.3266666666666655E-005     1.0091300389000619E-019
   6.3466666666666660E-005     4.2539357908158027E-019
   6.3666666666666665E-005     7.6183101771586568E-019
   6.3866666666666656E-005     1.0586688647347941E-018
   6.4066666666666661E-005     1.2588612554284997E-018
   6.4266666666666666E-005     1.3081667000082183E-018
   6.4466666666666657E-005     1.1648131979254815E-018
   6.4666666666666662E-005     8.0917537215958592E-019
   6.4866666666666667E-005     2.5181107170582281E-019
   6.5066666666666658E-005    -4.6185769088626669E-019
   6.5266666666666663E-005    -1.2517205153930591E-018
   6.5466666666666654E-005    -2.0089785167912136E-018
   6.5666666666666659E-005    -2.6081443119521616E-018
   6.5866666666666664E-005    -2.9242203637663304E-018
   6.6066666666666655E-005    -2.8531926393130864E-018
   6.6266666666666660E-005    -2.3330467876838698E-018
   6.6466666666666665E-005    -1.3618759507715926E-018
   6.6666666666666656E-005    -9.4997920955757589E-021
   6.6866666666666661E-005     1.5805863304409462E-018
   6.7066666666666666E-005     3.2010648934883341E-018
   6.7266666666666657E-005     4.6029867256651502E-018
   6.7466666666666662E-005     5.5288636337758612E-018
   6.7666666666666667E-005     5.7531077483456180E-018
   6.7866666666666658E-005     5.1244000247879512E-018
   6.8066666666666663E-005     3.6032508606595794E-018
   6.8266666666666655E-005     1.2876387655416429E-018
   6.8466666666666659E-005    -1.5796497551923830E-018
   6.8666666666666664E-005    -4.6264133077932645E-018
   6.8866666666666656E-005    -7.3905188019295430E-018
   6.9066666666666660E-005    -9.3810578085057245E-018
   6.9266666666666665E-005    -1.0154657796880630E-017
   6.9466666666666657E-005    -9.3967792032279074E-018
   6.9666666666666661E-005    -6.9952530277629164E-018
   6.9866666666666666E-005    -3.0924240258113852E-018
   7.0066666666666658E-005     1.8964587924268504E-018
   7.0266666666666662E-005     7.3074070027026650E-018
   7.0466666666666654E-005     1.2297526249161514E-017
   7.0666666666666659E-005     1.5956512539494917E-017
   7.0866666666666664E-005     1.7448168992473016E-017
   7.1066666666666655E-005     1.6163251444351520E-017
   7.1266666666666660E-005     1.1860019669834255E-017
   7.1466666666666665E-005     4.7668404516639418E-018
   7.1666666666666656E-005    -4.3766076579343941E-018
   7.1866666666666661E-005    -1.4356695603980608E-017
   7.2066666666666666E-005    -2.3608685939967846E-017
   7.2266666666666657E-005    -3.0418935060649602E-017
   7.2466666666666662E-005    -3.3185870753251731E-017
   7.2666666666666667E-005    -3.0706453115405684E-017
   7.2866666666666658E-005    -2.2444617824979121E-017
   7.3066666666666663E-005    -8.7345756279455183E-018
   7.3266666666666654E-005     9.1256575225738517E-018
   7.3466666666666659E-005     2.8923634049892594E-017
   7.3666666666666664E-005     4.7740322080636616E-017
   7.3866666666666655E-005     6.2308100942050956E-017
   7.4066666666666660E-005     6.9484561117883414E-017
   7.4266666666666665E-005     6.6783703921334471E-017
   7.4466666666666656E-005     5.2886828093704741E-017
   7.4666666666666661E-005     2.8046779587194532E-017
   7.4866666666666666E-005    -5.6972441056768493E-018
   7.5066666666666657E-005    -4.4559246833831238E-017
   7.5266666666666662E-005    -8.3333814503287241E-017
   7.5466666666666653E-005    -1.1600366352064879E-016