  -3.3333333333333335E-005     0.0000000000000000     
  -3.3133333333333337E-005     0.0000000000000000     
  -3.2933333333333332E-005     0.0000000000000000     
  -3.2733333333333334E-005     0.0000000000000000     
  -3.2533333333333336E-005     0.0000000000000000     
  -3.2333333333333338E-005     0.0000000000000000     
  -3.2133333333333333E-005     0.0000000000000000     
  -3.1933333333333335E-005     0.0000000000000000     
  -3.1733333333333337E-005     0.0000000000000000     
  -3.1533333333333332E-005     0.0000000000000000     
  -3.1333333333333334E-005     0.0000000000000000     
  -3.1133333333333336E-005     0.0000000000000000     
  -3.0933333333333338E-005     0.0000000000000000     
  -3.0733333333333333E-005     0.0000000000000000     
  -3.0533333333333335E-005     0.0000000000000000     
  -3.0333333333333337E-005     0.0000000000000000     
  -3.0133333333333335E-005     0.0000000000000000     
  -2.9933333333333334E-005     0.0000000000000000     
  -2.9733333333333336E-005     0.0000000000000000     
  -2.9533333333333334E-005     0.0000000000000000     
  -2.9333333333333336E-005     0.0000000000000000     
  -2.9133333333333334E-005     0.0000000000000000     
  -2.8933333333333336E-005     0.0000000000000000     
  -2.8733333333333335E-005     0.0000000000000000     
  -2.8533333333333333E-005     0.0000000000000000     
  -2.8333333333333335E-005     0.0000000000000000     
  -2.8133333333333337E-005     0.0000000000000000     
  -2.7933333333333336E-005     0.0000000000000000     
  -2.7733333333333334E-005     0.0000000000000000     
  -2.7533333333333336E-005     0.0000000000000000     
  -2.7333333333333335E-005     0.0000000000000000     
  -2.7133333333333333E-005     0.0000000000000000     
  -2.6933333333333335E-005     0.0000000000000000     
  -2.6733333333333337E-005     0.0000000000000000     
  -2.6533333333333336E-005     0.0000000000000000     
  -2.6333333333333334E-005     0.0000000000000000     
  -2.6133333333333336E-005     0.0000000000000000     
  -2.5933333333333335E-005     0.0000000000000000     
  -2.5733333333333333E-005     0.0000000000000000     
  -2.5533333333333335E-005     0.0000000000000000     
  -2.5333333333333337E-005     0.0000000000000000     
  -2.5133333333333336E-005     0.0000000000000000     
  -2.4933333333333334E-005     0.0000000000000000     
  -2.4733333333333336E-005     0.0000000000000000     
  -2.4533333333333334E-005     0.0000000000000000     
  -2.4333333333333333E-005     0.0000000000000000     
  -2.4133333333333335E-005     0.0000000000000000     
  -2.3933333333333337E-005     0.0000000000000000     
  -2.3733333333333335E-005     0.0000000000000000     
  -2.3533333333333334E-005     0.0000000000000000     
  -2.3333333333333336E-005     0.0000000000000000     
  -2.3133333333333338E-005     0.0000000000000000     
  -2.2933333333333336E-005     0.0000000000000000     
  -2.2733333333333335E-005     0.0000000000000000     
  -2.2533333333333337E-005     0.0000000000000000     
  -2.2333333333333335E-005     0.0000000000000000     
  -2.2133333333333334E-005     0.0000000000000000     
  -2.1933333333333336E-005     0.0000000000000000     
  -2.1733333333333338E-005     0.0000000000000000     
  -2.1533333333333336E-005     0.0000000000000000     
  -2.1333333333333335E-005     0.0000000000000000     
  -2.1133333333333337E-005     0.0000000000000000     
  -2.0933333333333335E-005     0.0000000000000000     
  -2.0733333333333334E-005     0.0000000000000000     
  -2.0533333333333336E-005     0.0000000000000000     
  -2.0333333333333337E-005     0.0000000000000000     
  -2.0133333333333336E-005     0.0000000000000000     
  -1.9933333333333334E-005     0.0000000000000000     
  -1.9733333333333336E-005     0.0000000000000000     
  -1.9533333333333335E-005     0.0000000000000000     
  -1.9333333333333333E-005     0.0000000000000000     
  -1.9133333333333335E-005     0.0000000000000000     
  -1.8933333333333337E-005     0.0000000000000000     
  -1.8733333333333336E-005     0.0000000000000000     
  -1.8533333333333334E-005     0.0000000000000000     
  -1.8333333333333336E-005     0.0000000000000000     
  -1.8133333333333335E-005     0.0000000000000000     
  -1.7933333333333337E-005     0.0000000000000000     
  -1.7733333333333335E-005     0.0000000000000000     
  -1.7533333333333337E-005     0.0000000000000000     
  -1.7333333333333336E-005     0.0000000000000000     
  -1.7133333333333334E-005     0.0000000000000000     
  -1.6933333333333336E-005     0.0000000000000000     
  -1.6733333333333335E-005     0.0000000000000000     
  -1.6533333333333337E-005     0.0000000000000000     
  -1.6333333333333335E-005     0.0000000000000000     
  -1.6133333333333337E-005     0.0000000000000000     
  -1.5933333333333336E-005     0.0000000000000000     
  -1.5733333333333334E-005     0.0000000000000000     
  -1.5533333333333336E-005     0.0000000000000000     
  -1.5333333333333334E-005     0.0000000000000000     
  -1.5133333333333336E-005     0.0000000000000000     
  -1.4933333333333335E-005     0.0000000000000000     
  -1.4733333333333337E-005     0.0000000000000000     
  -1.4533333333333335E-005     0.0000000000000000     
  -1.4333333333333337E-005     0.0000000000000000     
  -1.4133333333333336E-005     0.0000000000000000     
  -1.3933333333333334E-005     0.0000000000000000     
  -1.3733333333333336E-005     0.0000000000000000     
  -1.3533333333333335E-005     0.0000000000000000     
  -1.3333333333333337E-005     0.0000000000000000     
  -1.3133333333333335E-005     0.0000000000000000     
  -1.2933333333333337E-005     0.0000000000000000     
  -1.2733333333333336E-005     0.0000000000000000     
  -1.2533333333333338E-005     0.0000000000000000     
  -1.2333333333333336E-005     0.0000000000000000     
  -1.2133333333333335E-005     0.0000000000000000     
  -1.1933333333333337E-005     0.0000000000000000     
  -1.1733333333333335E-005     0.0000000000000000     
  -1.1533333333333337E-005     0.0000000000000000     
  -1.1333333333333336E-005     0.0000000000000000     
  -1.1133333333333337E-005     0.0000000000000000     
  -1.0933333333333336E-005     0.0000000000000000     
  -1.0733333333333334E-005     0.0000000000000000     
  -1.0533333333333336E-005     0.0000000000000000     
  -1.0333333333333335E-005     0.0000000000000000     
  -1.0133333333333337E-005     0.0000000000000000     
  -9.9333333333333354E-006     0.0000000000000000     
  -9.7333333333333373E-006     0.0000000000000000     
  -9.5333333333333358E-006     0.0000000000000000     
  -9.3333333333333343E-006     0.0000000000000000     
  -9.1333333333333362E-006     0.0000000000000000     
  -8.9333333333333348E-006     0.0000000000000000     
  -8.7333333333333367E-006     0.0000000000000000     
  -8.5333333333333352E-006     0.0000000000000000     
  -8.3333333333333371E-006     0.0000000000000000     
  -8.1333333333333356E-006     0.0000000000000000     
  -7.9333333333333376E-006     0.0000000000000000     
  -7.7333333333333361E-006     0.0000000000000000     
  -7.5333333333333346E-006     0.0000000000000000     
  -7.3333333333333365E-006     0.0000000000000000     
  -7.1333333333333351E-006     0.0000000000000000     
  -6.9333333333333370E-006     0.0000000000000000     
  -6.7333333333333355E-006     0.0000000000000000     
  -6.5333333333333374E-006     0.0000000000000000     
  -6.3333333333333359E-006     0.0000000000000000     
  -6.1333333333333379E-006     0.0000000000000000     
  -5.9333333333333364E-006     0.0000000000000000     
  -5.7333333333333349E-006     0.0000000000000000     
  -5.5333333333333368E-006     0.0000000000000000     
  -5.3333333333333354E-006     0.0000000000000000     
  -5.1333333333333373E-006     0.0000000000000000     
  -4.9333333333333358E-006     0.0000000000000000     
  -4.7333333333333377E-006     0.0000000000000000     
  -4.5333333333333362E-006     0.0000000000000000     
  -4.3333333333333348E-006     0.0000000000000000     
  -4.1333333333333367E-006     0.0000000000000000     
  -3.9333333333333352E-006     0.0000000000000000     
  -3.7333333333333371E-006     0.0000000000000000     
  -3.5333333333333356E-006     0.0000000000000000     
  -3.3333333333333376E-006     0.0000000000000000     
  -3.1333333333333361E-006     0.0000000000000000     
  -2.9333333333333346E-006     0.0000000000000000     
  -2.7333333333333365E-006     0.0000000000000000     
  -2.5333333333333384E-006     0.0000000000000000     
  -2.3333333333333336E-006     0.0000000000000000     
  -2.1333333333333355E-006     0.0000000000000000     
  -1.9333333333333374E-006     0.0000000000000000     
  -1.7333333333333393E-006     0.0000000000000000     
  -1.5333333333333345E-006     0.0000000000000000     
  -1.3333333333333364E-006     0.0000000000000000     
  -1.1333333333333383E-006     0.0000000000000000     
  -9.3333333333333343E-007     0.0000000000000000     
  -7.3333333333333535E-007     0.0000000000000000     
  -5.3333333333333726E-007     0.0000000000000000     
  -3.3333333333333918E-007     0.0000000000000000     
  -1.3333333333333432E-007     0.0000000000000000     
   6.6666666666663770E-008     0.0000000000000000     
   2.6666666666666185E-007     0.0000000000000000     
   4.6666666666666672E-007     0.0000000000000000     
   6.6666666666666480E-007     0.0000000000000000     
   8.6666666666666289E-007     0.0000000000000000     
   1.0666666666666610E-006     0.0000000000000000     
   1.2666666666666658E-006     0.0000000000000000     
   1.4666666666666639E-006     0.0000000000000000     
   1.6666666666666620E-006     0.0000000000000000     
   1.8666666666666669E-006     0.0000000000000000     
   2.0666666666666649E-006     0.0000000000000000     
   2.2666666666666630E-006     0.0000000000000000     
   2.4666666666666611E-006     0.0000000000000000     
   2.6666666666666660E-006     0.0000000000000000     
   2.8666666666666641E-006     0.0000000000000000     
   3.0666666666666622E-006     0.0000000000000000     
   3.2666666666666602E-006     0.0000000000000000     
   3.4666666666666651E-006     0.0000000000000000     
   3.6666666666666632E-006     0.0000000000000000     
   3.8666666666666613E-006     6.0526488598638229E-037
   4.0666666666666661E-006     1.6748121942786437E-036
   4.2666666666666642E-006     3.2146638761077613E-036
   4.4666666666666623E-006     5.0713971660216894E-036
   4.6666666666666604E-006     6.8707723726692216E-036
   4.8666666666666652E-006     2.8144296453436658E-035
   5.0666666666666633E-006     7.8386457512423363E-035
   5.2666666666666614E-006     1.5758022939213461E-034
   5.4666666666666663E-006     2.6531458511035977E-034
   5.6666666666666644E-006     3.8441007077040830E-034
   5.8666666666666624E-006     4.6896879771932876E-034
   6.0666666666666605E-006     4.6454195946252896E-034
   6.2666666666666654E-006     3.1722205087864592E-034
   6.4666666666666635E-006    -1.7726338581100271E-035
   6.6666666666666616E-006    -5.7346533230838567E-034
   6.8666666666666664E-006    -1.3194066344446062E-033
   7.0666666666666645E-006    -2.1684628979656827E-033
   7.2666666666666626E-006    -2.9385016965405159E-033
   7.4666666666666607E-006    -3.3864853487037744E-033
   7.6666666666666655E-006    -3.1896076773563036E-033
   7.8666666666666636E-006    -2.0076956783915033E-033
   8.0666666666666617E-006     3.7032204648229166E-034
   8.2666666666666598E-006     3.9667703390391044E-033
   8.4666666666666647E-006     8.4808310113538958E-033
   8.6666666666666627E-006     1.3186378244049699E-032
   8.8666666666666608E-006     1.6967155989429947E-032
   9.0666666666666657E-006     1.8258011886473996E-032
   9.2666666666666638E-006     1.5473972535354428E-032
   9.4666666666666619E-006     7.2604709798965986E-033
   9.6666666666666599E-006    -6.9451262531892884E-033
   9.8666666666666648E-006    -2.6433341466940779E-032
   1.0066666666666663E-005    -4.8697504222574364E-032
   1.0266666666666661E-005    -6.9348083515249458E-032
   1.0466666666666666E-005    -8.2370503807246464E-032
   1.0666666666666664E-005    -8.0951170785761356E-032
   1.0866666666666662E-005    -5.8958235719164751E-032
   1.1066666666666660E-005    -1.2845520147141761E-032
   1.1266666666666665E-005     5.6300660458410461E-032
   1.1466666666666663E-005     1.4110265082044581E-031
   1.1666666666666661E-005     2.2721861464530207E-031
   1.1866666666666666E-005     2.9424847636393612E-031
   1.2066666666666664E-005     3.1865209173531206E-031
   1.2266666666666662E-005     2.7858922240900508E-031
   1.2466666666666660E-005     1.6013465667664317E-031
   1.2666666666666665E-005    -3.6323377881263480E-032
   1.2866666666666663E-005    -2.9120065461112409E-031
   1.3066666666666661E-005    -5.6434209547101732E-031
   1.3266666666666666E-005    -7.9851961316330031E-031
   1.3466666666666664E-005    -9.2886312875987884E-031
   1.3666666666666662E-005    -8.9725681281316144E-031
   1.3866666666666660E-005    -6.6935972633845176E-031
   1.4066666666666665E-005    -2.5015587134368825E-031
   1.4266666666666663E-005     3.0702729896161222E-031
   1.4466666666666661E-005     9.0283251165752978E-031
   1.4666666666666666E-005     1.4084649179349202E-030
   1.4866666666666664E-005     1.6960008043381467E-030
   1.5066666666666662E-005     1.6772850534820946E-030
   1.5266666666666661E-005     1.3415257808702826E-030
   1.5466666666666665E-005     7.7855163168520421E-031
   1.5666666666666663E-005     1.7450197181035947E-031
   1.5866666666666662E-005    -2.2903964347382192E-031
   1.6066666666666660E-005    -2.1247394231508480E-031
   1.6266666666666665E-005     3.2035888602281900E-031
   1.6466666666666663E-005     1.2430303568984986E-030
   1.6666666666666661E-005     2.1463998343754840E-030
   1.6866666666666666E-005     2.3569647268450594E-030
   1.7066666666666664E-005     1.0637024870703863E-030
   1.7266666666666662E-005    -2.4396749543971653E-030
   1.7466666666666660E-005    -8.4262241207055852E-030
   1.7666666666666665E-005    -1.6391153413176739E-029
   1.7866666666666663E-005    -2.4798084380201148E-029
   1.8066666666666661E-005    -3.1041073563632978E-029
   1.8266666666666666E-005    -3.1733749314459538E-029
   1.8466666666666664E-005    -2.3382739528929735E-029
   1.8666666666666662E-005    -3.4090257761417382E-030
   1.8866666666666660E-005     2.8639968553716802E-029
   1.9066666666666665E-005     6.9966428855632280E-029
   1.9266666666666663E-005     1.1385191440437261E-028
   1.9466666666666661E-005     1.4981907741297958E-028
   1.9666666666666666E-005     1.6491091723550316E-028
   1.9866666666666664E-005     1.4616378274915413E-028
   2.0066666666666662E-005     8.4042166095090384E-029
   2.0266666666666660E-005    -2.3748863325256056E-029
   2.0466666666666665E-005    -1.6896962200030482E-028
   2.0666666666666663E-005    -3.3113433165398191E-028
   2.0866666666666661E-005    -4.7837552776227486E-028
   2.1066666666666659E-005    -5.7150863689973201E-028
   2.1266666666666664E-005    -5.7126062527114355E-028
   2.1466666666666662E-005    -4.4776879353081874E-028
   2.1666666666666660E-005    -1.9057709949180916E-028
   2.1866666666666665E-005     1.8330157412620826E-028
   2.2066666666666663E-005     6.2587609848582817E-028
   2.2266666666666661E-005     1.0613655478772228E-027
   2.2466666666666659E-005     1.3970306778736243E-027
   2.2666666666666664E-005     1.5408022148906064E-027
   2.2866666666666662E-005     1.4228060723948392E-027
   2.3066666666666660E-005     1.0160921348955287E-027
   2.3266666666666665E-005     3.5092140812498928E-028
   2.3466666666666663E-005    -4.8263929591790516E-028
   2.3666666666666661E-005    -1.3470433587600480E-027
   2.3866666666666660E-005    -2.0842519784305608E-027
   2.4066666666666664E-005    -2.5527698745137326E-027
   2.4266666666666662E-005    -2.6659831625856086E-027
   2.4466666666666661E-005    -2.4204338354310414E-027
   2.4666666666666665E-005    -1.9028359258310941E-027
   2.4866666666666663E-005    -1.2683799057395180E-027
   2.5066666666666662E-005    -6.9010677694786607E-028
   2.5266666666666660E-005    -2.8871062091450041E-028
   2.5466666666666665E-005    -6.1749725600333643E-029
   2.5666666666666663E-005     1.6209928822087869E-028
   2.5866666666666661E-005     7.1756331571753660E-028
   2.6066666666666666E-005     2.0277018604384906E-027
   2.6266666666666664E-005     4.4575009154101037E-027
   2.6466666666666662E-005     8.1176968783510242E-027
   2.6666666666666660E-005     1.2665471522858402E-026
   2.6866666666666665E-005     1.7168309599531359E-026
   2.7066666666666663E-005     2.0103591694380746E-026
   2.7266666666666661E-005     1.9552586218779469E-026
   2.7466666666666666E-005     1.3610397464820911E-026
   2.7666666666666664E-005     9.7610886628507750E-028
   2.7866666666666662E-005    -1.8380580810422060E-026
   2.8066666666666667E-005    -4.2641950187431658E-026
   2.8266666666666658E-005    -6.7855762796162696E-026
   2.8466666666666663E-005    -8.8132119651018711E-026
   2.8666666666666668E-005    -9.6448285150882795E-026
   2.8866666666666659E-005    -8.6060164157504079E-026
   2.9066666666666664E-005    -5.2350184014074658E-026
   2.9266666666666669E-005     5.2358712802240383E-027
   2.9466666666666660E-005     8.1650148200430809E-026
   2.9666666666666665E-005     1.6563982365266590E-025
   2.9866666666666656E-005     2.4053737180821143E-025
   3.0066666666666661E-005     2.8667104222928088E-025
   3.0266666666666666E-005     2.8526132313974764E-025
   3.0466666666666657E-005     2.2323353528886552E-025
   3.0666666666666662E-005     9.7967896262298811E-026
   3.0866666666666667E-005    -7.9256374435440937E-026
   3.1066666666666658E-005    -2.8237135586537375E-025
   3.1266666666666663E-005    -4.7310221948541985E-025
   3.1466666666666668E-005    -6.0726433597822967E-025
   3.1666666666666659E-005    -6.4409551208590006E-025
   3.1866666666666664E-005    -5.5694891389858363E-025
   3.2066666666666656E-005    -3.4286816191444820E-025
   3.2266666666666660E-005    -2.8225896167530722E-026
   3.2466666666666665E-005     3.3204360978823178E-025
   3.2666666666666657E-005     6.6295480974701879E-025
   3.2866666666666661E-005     8.8525073454622256E-025
   3.3066666666666666E-005     9.3581030907603450E-025
   3.3266666666666658E-005     7.8803758095499395E-025
   3.3466666666666662E-005     4.6636746741851519E-025
   3.3666666666666667E-005     4.9159247815431487E-026
   3.3866666666666659E-005    -3.4390728894185057E-025
   3.4066666666666664E-005    -5.8030920536586057E-025
   3.4266666666666668E-005    -5.5477683469986415E-025
   3.4466666666666660E-005    -2.3201614561382063E-025
   3.4666666666666665E-005     3.2041898014079824E-025
   3.4866666666666656E-005     9.2241081634756354E-025
   3.5066666666666661E-005     1.3051513364188256E-024
   3.5266666666666666E-005     1.1721657566623463E-024
   3.5466666666666657E-005     2.9094203377776059E-025
   3.5666666666666662E-005    -1.4027568003989819E-024
   3.5866666666666667E-005    -3.7155896894238785E-024
   3.6066666666666658E-005    -6.1548253111664112E-024
   3.6266666666666663E-005    -7.9633820219723969E-024
   3.6466666666666668E-005    -8.2484124553859476E-024
   3.6666666666666659E-005    -6.1985435881033071E-024
   3.6866666666666664E-005    -1.3576485505470866E-024
   3.7066666666666669E-005     6.1039642931631917E-024
   3.7266666666666660E-005     1.5199071413314619E-023
   3.7466666666666665E-005     2.4095265678492758E-023
   3.7666666666666656E-005     3.0312169609734632E-023
   3.7866666666666661E-005     3.1165956922898954E-023
   3.8066666666666666E-005     2.4422431539436879E-023
   3.8266666666666657E-005     9.0508015362705946E-024
   3.8466666666666662E-005    -1.4091184113969557E-023
   3.8666666666666667E-005    -4.1845375997494621E-023
   3.8866666666666658E-005    -6.8810645444648066E-023
   3.9066666666666663E-005    -8.8002684635589018E-023
   3.9266666666666668E-005    -9.2132150593367553E-023
   3.9466666666666659E-005    -7.5360948815707117E-023
   3.9666666666666664E-005    -3.5230256659018991E-023
   3.9866666666666655E-005     2.5681586072801691E-023
   4.0066666666666660E-005     9.8874424843433947E-023
   4.0266666666666665E-005     1.7026785137887354E-022
   4.0466666666666656E-005     2.2204162562564446E-022
   4.0666666666666661E-005     2.3594716079190111E-022
   4.0866666666666666E-005     1.9768286304986797E-022
   4.1066666666666657E-005     1.0154556466649747E-022
   4.1266666666666662E-005    -4.5721248417793568E-023
   4.1466666666666667E-005    -2.2306053099260240E-022
   4.1666666666666658E-005    -3.9622829816794080E-022
   4.1866666666666663E-005    -5.2246341056499203E-022
   4.2066666666666668E-005    -5.5852488049351154E-022
   4.2266666666666660E-005    -4.7104830928371976E-022
   4.2466666666666664E-005    -2.4732041458707487E-022
   4.2666666666666656E-005     9.6035257647558350E-023
   4.2866666666666661E-005     5.0912845533603811E-022
   4.3066666666666665E-005     9.1184262902718675E-022
   4.3266666666666657E-005     1.2049569871421931E-021
   4.3466666666666662E-005     1.2888005067846438E-021
   4.3666666666666666E-005     1.0869427898759545E-021
   4.3866666666666658E-005     5.7057014280573773E-022
   4.4066666666666663E-005    -2.2207562868610310E-022
   4.4266666666666667E-005    -1.1770814447856179E-021
   4.4466666666666659E-005    -2.1118815669854190E-021
   4.4666666666666664E-005    -2.8002424511619387E-021
   4.4866666666666655E-005    -3.0139107158645584E-021
   4.5066666666666660E-005    -2.5753872552990713E-021
   4.5266666666666665E-005    -1.4123371847713109E-021
   4.5466666666666656E-005     3.9857208595888657E-022
   4.5666666666666661E-005     2.6111430258495996E-021
   4.5866666666666666E-005     4.8228761575936444E-021
   4.6066666666666657E-005     6.5271868940150417E-021
   4.6266666666666662E-005     7.2021622348904776E-021
   4.6466666666666667E-005     6.4245700499283669E-021
   4.6666666666666658E-005     3.9894084877090735E-021
   4.6866666666666663E-005     9.5265162165550735E-024
   4.7066666666666668E-005    -5.0316265750606949E-021
   4.7266666666666659E-005    -1.0296706298762442E-020
   4.7466666666666664E-005    -1.4692936186553803E-020
   4.7666666666666655E-005    -1.7049291023968947E-020
   4.7866666666666660E-005    -1.6351396156218544E-020
   4.8066666666666665E-005    -1.1995918646086058E-020
   4.8266666666666656E-005    -4.0137065143060352E-021
   4.8466666666666661E-005     6.7930858790660597E-021
   4.8666666666666666E-005     1.8847630143273246E-020
   4.8866666666666657E-005     2.9957738519717313E-020
   4.9066666666666662E-005     3.7637877862724894E-020
   4.9266666666666667E-005     3.9559289178714866E-020
   4.9466666666666658E-005     3.4059617317442672E-020
   4.9666666666666663E-005     2.0617410528811725E-020
   4.9866666666666655E-005     1.8624157789022795E-022
   5.0066666666666659E-005    -2.4707296823242200E-020
   5.0266666666666664E-005    -5.0165744728516440E-020
   5.0466666666666656E-005    -7.1436203041828843E-020
   5.0666666666666660E-005    -8.3689300541410733E-020
   5.0866666666666665E-005    -8.2948812334462384E-020
   5.1066666666666657E-005    -6.7008589566168051E-020
   5.1266666666666661E-005    -3.6149085238274423E-020
   5.1466666666666666E-005     6.5233987460828470E-021
   5.1666666666666658E-005     5.5241253881307926E-020
   5.1866666666666662E-005     1.0228599445987351E-019
   5.2066666666666667E-005     1.3917957456118833E-019
   5.2266666666666659E-005     1.5818242062276318E-019
   5.2466666666666664E-005     1.5383501781712589E-019
   5.2666666666666655E-005     1.2423439837100701E-019
   5.2866666666666660E-005     7.1751164984755480E-020
   5.3066666666666665E-005     2.9727863492681049E-021
   5.3266666666666656E-005    -7.2202637578147508E-020
   5.3466666666666661E-005    -1.4222262986310314E-019
   5.3666666666666666E-005    -1.9600942880890435E-019
   5.3866666666666657E-005    -2.2514364763651404E-019
   5.4066666666666662E-005    -2.2561834591054291E-019
   5.4266666666666667E-005    -1.9871558895696279E-019
   5.4466666666666658E-005    -1.5070428137028046E-019
   5.4666666666666663E-005    -9.1301023000472230E-020
   5.4866666666666668E-005    -3.1129798517742401E-020
   5.5066666666666659E-005     2.1291921388386167E-020
   5.5266666666666664E-005     6.2301847870210361E-020
   5.5466666666666655E-005     9.4767039014040127E-020
   5.5666666666666660E-005     1.2799141393913165E-019
   5.5866666666666665E-005     1.7547958148716247E-019
   5.6066666666666656E-005     2.5065728399828205E-019
   5.6266666666666661E-005     3.6120909398659336E-019
   5.6466666666666666E-005     5.0322308046487707E-019
   5.6666666666666657E-005     6.5669496599309218E-019
   5.6866666666666662E-005     7.8402251579186174E-019
   5.7066666666666667E-005     8.3282674061916150E-019
   5.7266666666666658E-005     7.4375805190977115E-019
   5.7466666666666663E-005     4.6293659289897726E-019
   5.7666666666666654E-005    -4.2492403776168279E-020
   5.7866666666666659E-005    -7.6834387596759023E-019
   5.8066666666666664E-005    -1.6603945770964406E-018
   5.8266666666666655E-005    -2.6081592012031875E-018
   5.8466666666666660E-005    -3.4487417940407994E-018
   5.8666666666666665E-005    -3.9828179875708684E-018
   5.8866666666666656E-005    -4.0028423758395521E-018
   5.9066666666666661E-005    -3.3311301526207128E-018
   5.9266666666666666E-005    -1.8629466038850302E-018
   5.9466666666666657E-005     3.9241337107120821E-019
   5.9666666666666662E-005     3.2808450160030017E-018
   5.9866666666666667E-005     6.4912332689705742E-018
   6.0066666666666659E-005     9.5685647641204699E-018
   6.0266666666666663E-005     1.1956004880934295E-017
   6.0466666666666655E-005     1.3065216859240341E-017
   6.0666666666666660E-005     1.2369112113733078E-017
   6.0866666666666664E-005     9.5060985658023029E-018
   6.1066666666666656E-005     4.3806910350282621E-018
   6.1266666666666661E-005    -2.7571491119798606E-018
   6.1466666666666665E-005    -1.1271598123649758E-017
   6.1666666666666657E-005    -2.0154328416748424E-017
   6.1866666666666662E-005    -2.8100744850357491E-017
   6.2066666666666666E-005    -3.3650001794955235E-017
   6.2266666666666658E-005    -3.5379911079766983E-017
   6.2466666666666663E-005    -3.2137498736179573E-017
   6.2666666666666668E-005    -2.3276819423850346E-017
   6.2866666666666659E-005    -8.8689825513180347E-018
   6.3066666666666664E-005     1.0153388901820973E-017
   6.3266666666666655E-005     3.1952547768657617E-017
   6.3466666666666660E-005     5.3870153936128178E-017
   6.3666666666666665E-005     7.2653562836467967E-017
   6.3866666666666656E-005     8.4819219125195665E-017
   6.4066666666666661E-005     8.7127119208667617E-017
   6.4266666666666666E-005     7.7118247031665783E-017
   6.4466666666666657E-005     5.3647761465359622E-017
   6.4666666666666662E-005     1.7332593662925882E-017
   6.4866666666666667E-005    -2.9172036387842268E-017
   6.5066666666666658E-005    -8.1145213716480138E-017
   6.5266666666666663E-005    -1.3207931653813095E-016
   6.5466666666666654E-005    -1.7428763004430277E-016
   6.5666666666666659E-005    -1.9981728248388619E-016
   6.5866666666666664E-005    -2.0159110182433471E-016
   6.6066666666666655E-005    -1.7464955134079678E-016
   6.6266666666666660E-005    -1.1731943655997974E-016
   6.6466666666666665E-005    -3.2111330050320846E-017
   6.6666666666666656E-005     7.3852835758326949E-017
   6.6866666666666661E-005     1.8904494245383261E-016
   6.7066666666666666E-005     2.9846314980270584E-016
   6.7266666666666657E-005     3.8528569449238653E-016
   6.7466666666666662E-005     4.3311708915846523E-016
   6.7666666666666667E-005     4.2857426617388321E-016
   6.7866666666666658E-005     3.6384895819349509E-016
   6.8066666666666663E-005     2.3881649255537690E-016
   6.8266666666666655E-005     6.2255637838880393E-017
   6.8466666666666659E-005    -1.4818457600409760E-016
   6.8666666666666664E-005    -3.6748114135043994E-016
   6.8866666666666656E-005    -5.6618456227379692E-016
   6.9066666666666660E-005    -7.1453841251844737E-016
   6.9266666666666665E-005    -7.8722453318382543E-016
   6.9466666666666657E-005    -7.6797052138066952E-016
   6.9666666666666661E-005    -6.5314144109495623E-016
   6.9866666666666666E-005    -4.5347179380679850E-016
   7.0066666666666658E-005    -1.9330723871419586E-016
   7.0266666666666662E-005     9.2895433431804103E-017
   7.0466666666666654E-005     3.6654368763606624E-016
   7.0666666666666659E-005     5.9251818132922268E-016
   7.0866666666666664E-005     7.4704711351759379E-016
   7.1066666666666655E-005     8.2411371800925667E-016
   7.1266666666666660E-005     8.3859353448433212E-016
   7.1466666666666665E-005     8.2460907346472282E-016
   7.1666666666666656E-005     8.2829821958737052E-016
   7.1866666666666661E-005     8.9525262711735634E-016
   7.2066666666666666E-005     1.0541926421972318E-015
   7.2266666666666657E-005     1.2997646460234354E-015
   7.2466666666666662E-005     1.5784388033074554E-015
   7.2666666666666667E-005     1.7820105725649361E-015
   7.2866666666666658E-005     1.7529520485181933E-015
   7.3066666666666663E-005     1.3045775931088527E-015
   7.3266666666666654E-005     2.5671977797523781E-016
   7.3466666666666659E-005    -1.5155361249411014E-015
   7.3666666666666664E-005    -4.0261339455480855E-015
   7.3866666666666655E-005    -7.1249269030797431E-015
   7.4066666666666660E-005    -1.0459438118403958E-014
   7.4266666666666665E-005    -1.3464860940093880E-014
   7.4466666666666656E-005    -1.5394454509981906E-014
   7.4666666666666661E-005    -1.5398511797799254E-014
   7.4866666666666666E-005    -1.2653315285197746E-014
   7.5066666666666657E-005    -6.5322765846107488E-015
   7.5266666666666662E-005     3.1991267629910081E-015
   7.5466666666666653E-005     1.6193484406049410E-014