  -3.3333333333333335E-005     0.0000000000000000     
  -3.3133333333333337E-005     0.0000000000000000     
  -3.2933333333333332E-005     0.0000000000000000     
  -3.2733333333333334E-005     0.0000000000000000     
  -3.2533333333333336E-005     0.0000000000000000     
  -3.2333333333333338E-005     0.0000000000000000     
  -3.2133333333333333E-005     0.0000000000000000     
  -3.1933333333333335E-005     0.0000000000000000     
  -3.1733333333333337E-005     0.0000000000000000     
  -3.1533333333333332E-005     0.0000000000000000     
  -3.1333333333333334E-005     0.0000000000000000     
  -3.1133333333333336E-005     0.0000000000000000     
  -3.0933333333333338E-005     0.0000000000000000     
  -3.0733333333333333E-005     0.0000000000000000     
  -3.0533333333333335E-005     0.0000000000000000     
  -3.0333333333333337E-005     0.0000000000000000     
  -3.0133333333333335E-005     0.0000000000000000     
  -2.9933333333333334E-005     0.0000000000000000     
  -2.9733333333333336E-005     0.0000000000000000     
  -2.9533333333333334E-005     0.0000000000000000     
  -2.9333333333333336E-005     0.0000000000000000     
  -2.9133333333333334E-005     0.0000000000000000     
  -2.8933333333333336E-005     0.0000000000000000     
  -2.8733333333333335E-005     0.0000000000000000     
  -2.8533333333333333E-005     0.0000000000000000     
  -2.8333333333333335E-005     0.0000000000000000     
  -2.8133333333333337E-005     0.0000000000000000     
  -2.7933333333333336E-005     0.0000000000000000     
  -2.7733333333333334E-005     0.0000000000000000     
  -2.7533333333333336E-005     0.0000000000000000     
  -2.7333333333333335E-005     0.0000000000000000     
  -2.7133333333333333E-005     0.0000000000000000     
  -2.6933333333333335E-005     0.0000000000000000     
  -2.6733333333333337E-005     0.0000000000000000     
  -2.6533333333333336E-005     0.0000000000000000     
  -2.6333333333333334E-005     0.0000000000000000     
  -2.6133333333333336E-005     0.0000000000000000     
  -2.5933333333333335E-005     0.0000000000000000     
  -2.5733333333333333E-005     0.0000000000000000     
  -2.5533333333333335E-005     0.0000000000000000     
  -2.5333333333333337E-005     0.0000000000000000     
  -2.5133333333333336E-005     0.0000000000000000     
  -2.4933333333333334E-005     0.0000000000000000     
  -2.4733333333333336E-005     0.0000000000000000     
  -2.4533333333333334E-005     0.0000000000000000     
  -2.4333333333333333E-005     0.0000000000000000     
  -2.4133333333333335E-005     0.0000000000000000     
  -2.3933333333333337E-005     0.0000000000000000     
  -2.3733333333333335E-005     0.0000000000000000     
  -2.3533333333333334E-005     0.0000000000000000     
  -2.3333333333333336E-005     0.0000000000000000     
  -2.3133333333333338E-005     0.0000000000000000     
  -2.2933333333333336E-005     0.0000000000000000     
  -2.2733333333333335E-005     0.0000000000000000     
  -2.2533333333333337E-005     0.0000000000000000     
  -2.2333333333333335E-005     0.0000000000000000     
  -2.2133333333333334E-005     0.0000000000000000     
  -2.1933333333333336E-005     0.0000000000000000     
  -2.1733333333333338E-005     0.0000000000000000     
  -2.1533333333333336E-005     0.0000000000000000     
  -2.1333333333333335E-005     0.0000000000000000     
  -2.1133333333333337E-005     0.0000000000000000     
  -2.0933333333333335E-005     0.0000000000000000     
  -2.0733333333333334E-005     0.0000000000000000     
  -2.0533333333333336E-005     0.0000000000000000     
  -2.0333333333333337E-005     0.0000000000000000     
  -2.0133333333333336E-005     0.0000000000000000     
  -1.9933333333333334E-005     0.0000000000000000     
  -1.9733333333333336E-005     0.0000000000000000     
  -1.9533333333333335E-005     0.0000000000000000     
  -1.9333333333333333E-005     0.0000000000000000     
  -1.9133333333333335E-005     0.0000000000000000     
  -1.8933333333333337E-005     0.0000000000000000     
  -1.8733333333333336E-005     0.0000000000000000     
  -1.8533333333333334E-005     0.0000000000000000     
  -1.8333333333333336E-005     0.0000000000000000     
  -1.8133333333333335E-005     0.0000000000000000     
  -1.7933333333333337E-005     0.0000000000000000     
  -1.7733333333333335E-005     0.0000000000000000     
  -1.7533333333333337E-005     0.0000000000000000     
  -1.7333333333333336E-005     0.0000000000000000     
  -1.7133333333333334E-005     0.0000000000000000     
  -1.6933333333333336E-005     0.0000000000000000     
  -1.6733333333333335E-005     0.0000000000000000     
  -1.6533333333333337E-005     0.0000000000000000     
  -1.6333333333333335E-005     0.0000000000000000     
  -1.6133333333333337E-005     0.0000000000000000     
  -1.5933333333333336E-005     0.0000000000000000     
  -1.5733333333333334E-005     0.0000000000000000     
  -1.5533333333333336E-005     0.0000000000000000     
  -1.5333333333333334E-005     0.0000000000000000     
  -1.5133333333333336E-005     0.0000000000000000     
  -1.4933333333333335E-005     0.0000000000000000     
  -1.4733333333333337E-005     0.0000000000000000     
  -1.4533333333333335E-005     0.0000000000000000     
  -1.4333333333333337E-005     0.0000000000000000     
  -1.4133333333333336E-005     0.0000000000000000     
  -1.3933333333333334E-005     0.0000000000000000     
  -1.3733333333333336E-005     0.0000000000000000     
  -1.3533333333333335E-005     0.0000000000000000     
  -1.3333333333333337E-005     0.0000000000000000     
  -1.3133333333333335E-005     0.0000000000000000     
  -1.2933333333333337E-005     0.0000000000000000     
  -1.2733333333333336E-005     0.0000000000000000     
  -1.2533333333333338E-005     0.0000000000000000     
  -1.2333333333333336E-005     0.0000000000000000     
  -1.2133333333333335E-005     0.0000000000000000     
  -1.1933333333333337E-005     0.0000000000000000     
  -1.1733333333333335E-005     0.0000000000000000     
  -1.1533333333333337E-005     0.0000000000000000     
  -1.1333333333333336E-005     0.0000000000000000     
  -1.1133333333333337E-005     0.0000000000000000     
  -1.0933333333333336E-005     0.0000000000000000     
  -1.0733333333333334E-005     0.0000000000000000     
  -1.0533333333333336E-005     0.0000000000000000     
  -1.0333333333333335E-005     0.0000000000000000     
  -1.0133333333333337E-005     0.0000000000000000     
  -9.9333333333333354E-006     0.0000000000000000     
  -9.7333333333333373E-006     0.0000000000000000     
  -9.5333333333333358E-006     0.0000000000000000     
  -9.3333333333333343E-006     0.0000000000000000     
  -9.1333333333333362E-006     0.0000000000000000     
  -8.9333333333333348E-006     0.0000000000000000     
  -8.7333333333333367E-006     0.0000000000000000     
  -8.5333333333333352E-006     0.0000000000000000     
  -8.3333333333333371E-006     0.0000000000000000     
  -8.1333333333333356E-006     0.0000000000000000     
  -7.9333333333333376E-006     0.0000000000000000     
  -7.7333333333333361E-006     0.0000000000000000     
  -7.5333333333333346E-006     0.0000000000000000     
  -7.3333333333333365E-006     0.0000000000000000     
  -7.1333333333333351E-006     0.0000000000000000     
  -6.9333333333333370E-006     0.0000000000000000     
  -6.7333333333333355E-006     0.0000000000000000     
  -6.5333333333333374E-006     0.0000000000000000     
  -6.3333333333333359E-006     0.0000000000000000     
  -6.1333333333333379E-006     0.0000000000000000     
  -5.9333333333333364E-006     0.0000000000000000     
  -5.7333333333333349E-006     0.0000000000000000     
  -5.5333333333333368E-006     0.0000000000000000     
  -5.3333333333333354E-006     0.0000000000000000     
  -5.1333333333333373E-006     0.0000000000000000     
  -4.9333333333333358E-006     0.0000000000000000     
  -4.7333333333333377E-006     0.0000000000000000     
  -4.5333333333333362E-006     0.0000000000000000     
  -4.3333333333333348E-006     0.0000000000000000     
  -4.1333333333333367E-006     0.0000000000000000     
  -3.9333333333333352E-006     0.0000000000000000     
  -3.7333333333333371E-006     0.0000000000000000     
  -3.5333333333333356E-006     0.0000000000000000     
  -3.3333333333333376E-006     0.0000000000000000     
  -3.1333333333333361E-006     0.0000000000000000     
  -2.9333333333333346E-006     0.0000000000000000     
  -2.7333333333333365E-006     0.0000000000000000     
  -2.5333333333333384E-006     0.0000000000000000     
  -2.3333333333333336E-006     0.0000000000000000     
  -2.1333333333333355E-006     0.0000000000000000     
  -1.9333333333333374E-006     0.0000000000000000     
  -1.7333333333333393E-006     0.0000000000000000     
  -1.5333333333333345E-006     0.0000000000000000     
  -1.3333333333333364E-006     0.0000000000000000     
  -1.1333333333333383E-006     0.0000000000000000     
  -9.3333333333333343E-007     0.0000000000000000     
  -7.3333333333333535E-007     0.0000000000000000     
  -5.3333333333333726E-007     0.0000000000000000     
  -3.3333333333333918E-007     0.0000000000000000     
  -1.3333333333333432E-007     0.0000000000000000     
   6.6666666666663770E-008     0.0000000000000000     
   2.6666666666666185E-007     0.0000000000000000     
   4.6666666666666672E-007     0.0000000000000000     
   6.6666666666666480E-007     0.0000000000000000     
   8.6666666666666289E-007     0.0000000000000000     
   1.0666666666666610E-006     0.0000000000000000     
   1.2666666666666658E-006     0.0000000000000000     
   1.4666666666666639E-006     0.0000000000000000     
   1.6666666666666620E-006     0.0000000000000000     
   1.8666666666666669E-006     0.0000000000000000     
   2.0666666666666649E-006     0.0000000000000000     
   2.2666666666666630E-006     0.0000000000000000     
   2.4666666666666611E-006     0.0000000000000000     
   2.6666666666666660E-006     0.0000000000000000     
   2.8666666666666641E-006     0.0000000000000000     
   3.0666666666666622E-006     0.0000000000000000     
   3.2666666666666602E-006     0.0000000000000000     
   3.4666666666666651E-006     0.0000000000000000     
   3.6666666666666632E-006     0.0000000000000000     
   3.8666666666666613E-006    -1.0933637321503751E-036
   4.0666666666666661E-006    -3.0254174647242496E-036
   4.2666666666666642E-006    -5.8070393095443613E-036
   4.4666666666666623E-006    -9.1610829226218451E-036
   4.6666666666666604E-006    -1.2411512778426668E-035
   4.8666666666666652E-006    -2.2139253715724751E-035
   5.0666666666666633E-006    -5.4595588316045219E-035
   5.2666666666666614E-006    -1.0813372533214223E-034
   5.4666666666666663E-006    -1.8954364270654557E-034
   5.6666666666666644E-006    -2.8731602818466244E-034
   5.8666666666666624E-006    -3.7664714740355119E-034
   6.0666666666666605E-006    -4.1934879344821990E-034
   6.2666666666666654E-006    -3.4823074237499840E-034
   6.4666666666666635E-006    -1.4031420332115962E-034
   6.6666666666666616E-006     2.4981116919658213E-034
   6.8666666666666664E-006     8.0689320970250044E-034
   7.0666666666666645E-006     1.4881462771112531E-033
   7.2666666666666626E-006     2.1659177690251602E-033
   7.4666666666666607E-006     2.6829506940396891E-033
   7.6666666666666655E-006     2.7848473198147652E-033
   7.8666666666666636E-006     2.2076559000030133E-033
   8.0666666666666617E-006     7.2861795923620590E-034
   8.2666666666666598E-006    -1.7514428690290372E-033
   8.4666666666666647E-006    -5.1122128094406355E-033
   8.6666666666666627E-006    -8.9286826040736791E-033
   8.8666666666666608E-006    -1.2428916133002711E-032
   9.0666666666666657E-006    -1.4519240431720382E-032
   9.2666666666666638E-006    -1.3926159450692382E-032
   9.4666666666666619E-006    -9.4463732549116916E-033
   9.6666666666666599E-006    -3.1140321608883136E-034
   9.8666666666666648E-006     1.3392928764536499E-032
   1.0066666666666663E-005     3.0333008710963193E-032
   1.0266666666666661E-005     4.7695186638251093E-032
   1.0466666666666666E-005     6.1244766188081986E-032
   1.0666666666666664E-005     6.5799454149213103E-032
   1.0866666666666662E-005     5.6176657559342218E-032
   1.1066666666666660E-005     2.8559890093446978E-032
   1.1266666666666665E-005    -1.7907306085642043E-032
   1.1466666666666663E-005    -7.9643386300697528E-032
   1.1666666666666661E-005    -1.4772229444283592E-031
   1.1866666666666666E-005    -2.0802594222123432E-031
   1.2066666666666664E-005    -2.4284648290106615E-031
   1.2266666666666662E-005    -2.3407386260042748E-031
   1.2466666666666660E-005    -1.6771365650356987E-031
   1.2666666666666665E-005    -3.9000639733658167E-032
   1.2866666666666663E-005     1.4307817487149424E-031
   1.3066666666666661E-005     3.5332393237976487E-031
   1.3266666666666666E-005     5.5134865111476808E-031
   1.3466666666666664E-005     6.8704151236352061E-031
   1.3666666666666662E-005     7.1047894190818167E-031
   1.3866666666666660E-005     5.8499891663869528E-031
   1.4066666666666665E-005     3.0077054220026447E-031
   1.4266666666666663E-005    -1.1489392281406015E-031
   1.4466666666666661E-005    -5.9457449362049363E-031
   1.4666666666666666E-005    -1.0384181678214873E-030
   1.4866666666666664E-005    -1.3336297502169391E-030
   1.5066666666666662E-005    -1.3837012016241134E-030
   1.5266666666666661E-005    -1.1415019694224970E-030
   1.5466666666666665E-005    -6.3701411848461520E-031
   1.5666666666666663E-005     1.1121999309706584E-032
   1.5866666666666662E-005     6.0983029440433544E-031
   1.6066666666666660E-005     9.3629027822656632E-031
   1.6266666666666665E-005     8.0950916878981578E-031
   1.6466666666666663E-005     1.7480802351953956E-031
   1.6666666666666661E-005    -8.2264244995403884E-031
   1.6866666666666666E-005    -1.8051449846142558E-030
   1.7066666666666664E-005    -2.1992316286370332E-030
   1.7266666666666662E-005    -1.3592514833642982E-030
   1.7466666666666660E-005     1.2262222923145090E-030
   1.7666666666666665E-005     5.6780003309689903E-030
   1.7866666666666663E-005     1.1482816377928419E-029
   1.8066666666666661E-005     1.7347993025367544E-029
   1.8266666666666666E-005     2.1243980783992788E-029
   1.8466666666666664E-005     2.0702702687021063E-029
   1.8666666666666662E-005     1.3388387888633990E-029
   1.8866666666666660E-005    -2.1192346301257213E-030
   1.9066666666666665E-005    -2.5477829317010471E-029
   1.9266666666666663E-005    -5.3897679124411502E-029
   1.9466666666666661E-005    -8.1885425483930490E-029
   1.9666666666666666E-005    -1.0165877970408411E-028
   1.9866666666666664E-005    -1.0437123536363478E-028
   2.0066666666666662E-005    -8.2104903256686644E-029
   2.0266666666666660E-005    -3.0355908939589529E-029
   2.0466666666666665E-005     4.9499159067250404E-029
   2.0666666666666663E-005     1.4843884768127231E-028
   2.0866666666666661E-005     2.4945362048607763E-028
   2.1066666666666659E-005     3.2918851648291888E-028
   2.1266666666666664E-005     3.6177322891550930E-028
   2.1466666666666662E-005     3.2450650856574059E-028
   2.1666666666666660E-005     2.0445284696213588E-028
   2.1866666666666665E-005     4.4764577776488654E-030
   2.2066666666666663E-005    -2.5304398723665292E-028
   2.2266666666666661E-005    -5.2645266140875926E-028
   2.2466666666666659E-005    -7.6002121171353097E-028
   2.2666666666666664E-005    -8.9405808767835921E-028
   2.2866666666666662E-005    -8.7849310705381045E-028
   2.3066666666666660E-005    -6.8716588192278676E-028
   2.3266666666666665E-005    -3.2912122930548685E-028
   2.3466666666666663E-005     1.4690302688418286E-028
   2.3666666666666661E-005     6.5765114996979820E-028
   2.3866666666666660E-005     1.1009854898036653E-027
   2.4066666666666664E-005     1.3799133014174022E-027
   2.4266666666666662E-005     1.4298889686548149E-027
   2.4466666666666661E-005     1.2419107912523348E-027
   2.4666666666666665E-005     8.7318774783600693E-028
   2.4866666666666663E-005     4.3873141541503025E-028
   2.5066666666666662E-005     8.1377112386295936E-029
   2.5266666666666660E-005    -7.6039235045087654E-029
   2.5466666666666665E-005     1.4397879115312250E-029
   2.5666666666666663E-005     2.8029324779605878E-028
   2.5866666666666661E-005     5.1222345764538888E-028
   2.6066666666666666E-005     3.9207422176829395E-028
   2.6266666666666664E-005    -4.2615682621513155E-028
   2.6466666666666662E-005    -2.1901900661375139E-027
   2.6666666666666660E-005    -4.9024804808989637E-027
   2.6866666666666665E-005    -8.1929845613650323E-027
   2.7066666666666663E-005    -1.1261432385917153E-026
   2.7266666666666661E-005    -1.2935919850112991E-026
   2.7466666666666666E-005    -1.1876347150420998E-026
   2.7666666666666664E-005    -6.9175913817330282E-027
   2.7866666666666662E-005     2.4968813134575594E-027
   2.8066666666666667E-005     1.5885595574994750E-026
   2.8266666666666658E-005     3.1431903923546690E-026
   2.8466666666666663E-005     4.5955014996452267E-026
   2.8666666666666668E-005     5.5256138047730916E-026
   2.8866666666666659E-005     5.4877262946095237E-026
   2.9066666666666664E-005     4.1206026124703111E-026
   2.9266666666666669E-005     1.2740601279616970E-026
   2.9466666666666660E-005    -2.8778573350323728E-026
   2.9666666666666665E-005    -7.7722859650570400E-026
   2.9866666666666656E-005    -1.2474855302914597E-025
   3.0066666666666661E-005    -1.5800398289082090E-025
   3.0266666666666666E-005    -1.6537115488467993E-025
   3.0466666666666657E-005    -1.3746097256107272E-025
   3.0666666666666662E-005    -7.0792001693008455E-026
   3.0866666666666667E-005     2.9637704505867630E-026
   3.1066666666666658E-005     1.4924448372519843E-025
   3.1266666666666663E-005     2.6493079989039172E-025
   3.1466666666666668E-005     3.4866113732003541E-025
   3.1666666666666659E-005     3.7328247224811471E-025
   3.1866666666666664E-005     3.1964648809936056E-025
   3.2066666666666656E-005     1.8347478542835515E-025
   3.2266666666666660E-005    -1.9951735970125701E-026
   3.2466666666666665E-005    -2.5512511092707482E-025
   3.2666666666666657E-005    -4.7090257945882421E-025
   3.2866666666666661E-005    -6.1047435891299369E-025
   3.3066666666666666E-005    -6.2535050064842523E-025
   3.3266666666666658E-005    -4.9051188662558182E-025
   3.3466666666666662E-005    -2.1675777611790623E-025
   3.3666666666666667E-005     1.4401309100246707E-025
   3.3866666666666659E-005     5.0400954323294621E-025
   3.4066666666666664E-005     7.5660043850199853E-025
   3.4266666666666668E-005     8.0351803944763136E-025
   3.4466666666666660E-005     5.8706713022185610E-025
   3.4666666666666665E-005     1.1922393824275364E-025
   3.4866666666666656E-005    -5.0198222001033479E-025
   3.5066666666666661E-005    -1.0975556866769956E-024
   3.5266666666666666E-005    -1.4391691406697865E-024
   3.5466666666666657E-005    -1.3061579229338876E-024
   3.5666666666666662E-005    -5.5883759481710247E-025
   3.5866666666666667E-005     7.8856281440645142E-025
   3.6066666666666658E-005     2.5172657981824692E-024
   3.6266666666666663E-005     4.1980483415870919E-024
   3.6466666666666668E-005     5.2467568735442841E-024
   3.6666666666666659E-005     5.0455433057409184E-024
   3.6866666666666664E-005     3.1166551329591038E-024
   3.7066666666666669E-005    -6.8371940370947257E-025
   3.7266666666666660E-005    -6.0002519610928801E-024
   3.7466666666666665E-005    -1.1898402444083910E-023
   3.7666666666666656E-005    -1.6920391152055834E-023
   3.7866666666666661E-005    -1.9306842118477766E-023
   3.8066666666666666E-005    -1.7377553401571325E-023
   3.8266666666666657E-005    -1.0019398087858972E-023
   3.8466666666666662E-005     2.8162001022657666E-024
   3.8666666666666667E-005     1.9736865975131844E-023
   3.8866666666666658E-005     3.7792896553178415E-023
   3.9066666666666663E-005     5.2733773792214197E-023
   3.9266666666666668E-005     5.9686636038651151E-023
   3.9466666666666659E-005     5.4210212173313085E-023
   3.9666666666666664E-005     3.3566296574418207E-023
   3.9866666666666655E-005    -2.0525046487822102E-024
   4.0066666666666660E-005    -4.8665337269507181E-023
   4.0266666666666665E-005    -9.8343205909858118E-023
   4.0466666666666656E-005    -1.3999092807438418E-022
   4.0666666666666661E-005    -1.6114707945803165E-022
   4.0866666666666666E-005    -1.5064340281590112E-022
   4.1066666666666657E-005    -1.0170630296454530E-022
   4.1266666666666662E-005    -1.4856598495365590E-023
   4.1466666666666667E-005     1.0016200992382292E-022
   4.1666666666666658E-005     2.2416541588734219E-022
   4.1866666666666663E-005     3.3054011564745130E-022
   4.2066666666666668E-005     3.8959282937355409E-022
   4.2266666666666660E-005     3.7480687494997285E-022
   4.2466666666666664E-005     2.6999687132903876E-022
   4.2666666666666656E-005     7.5873146735136257E-023
   4.2866666666666661E-005    -1.8571306632727884E-022
   4.3066666666666665E-005    -4.7145791110925948E-022
   4.3266666666666657E-005    -7.2130462434631205E-022
   4.3466666666666662E-005    -8.6830598889143984E-022
   4.3666666666666666E-005    -8.5260641994364232E-022
   4.3866666666666658E-005    -6.3726082238635657E-022
   4.4066666666666663E-005    -2.2260975693869739E-022
   4.4266666666666667E-005     3.4453564406577557E-022
   4.4466666666666659E-005     9.7032981152578022E-022
   4.4666666666666664E-005     1.5241871093281821E-021
   4.4866666666666655E-005     1.8601625902085766E-021
   4.5066666666666660E-005     1.8471080403215489E-021
   4.5266666666666665E-005     1.4026961685498066E-021
   4.5466666666666656E-005     5.2434567055017282E-022
   4.5666666666666661E-005    -6.9085156417890495E-022
   4.5866666666666666E-005    -2.0443976846091568E-021
   4.6066666666666657E-005    -3.2575545842494219E-021
   4.6266666666666662E-005    -4.0159291583054880E-021
   4.6466666666666667E-005    -4.0327853866669568E-021
   4.6666666666666658E-005    -3.1210188921834548E-021
   4.6866666666666663E-005    -1.2594956746855530E-021
   4.7066666666666668E-005     1.3625517565242549E-021
   4.7266666666666659E-005     4.3380901575007500E-021
   4.7466666666666664E-005     7.0819350871475896E-021
   4.7666666666666655E-005     8.9193294098266090E-021
   4.7866666666666660E-005     9.2148194888220045E-021
   4.8066666666666665E-005     7.5219774015673275E-021
   4.8266666666666656E-005     3.7256388465005260E-021
   4.8466666666666661E-005    -1.8561874380656337E-021
   4.8666666666666666E-005    -8.4418297077075704E-021
   4.8866666666666657E-005    -1.4849121457135739E-020
   4.9066666666666662E-005    -1.9658855217291950E-020
   4.9266666666666667E-005    -2.1464899071637783E-020
   4.9466666666666658E-005    -1.9175909370944560E-020
   4.9666666666666663E-005    -1.2315199053421589E-020
   4.9866666666666655E-005    -1.2548107749198520E-021
   5.0066666666666659E-005     1.2679250611411553E-020
   5.0266666666666664E-005     2.7279127363466006E-020
   5.0466666666666656E-005     3.9725368304904761E-020
   5.0666666666666660E-005     4.7038649815070807E-020
   5.0866666666666665E-005     4.6655148203575909E-020
   5.1066666666666657E-005     3.7030656207277081E-020
   5.1266666666666661E-005     1.8154554571943244E-020
   5.1466666666666666E-005    -8.1492315296818427E-021
   5.1666666666666658E-005    -3.8236023149654499E-020
   5.1866666666666662E-005    -6.7024609728187730E-020
   5.2066666666666667E-005    -8.8741506465382953E-020
   5.2266666666666659E-005    -9.7939115104467599E-020
   5.2466666666666664E-005    -9.0629694847551556E-020
   5.2666666666666655E-005    -6.5325625986443561E-020
   5.2866666666666660E-005    -2.3758562665909358E-020
   5.3066666666666665E-005     2.8923362088416823E-020
   5.3266666666666656E-005     8.4608925049765097E-020
   5.3466666666666661E-005     1.3334470714372463E-019
   5.3666666666666666E-005     1.6500638925768717E-019
   5.3866666666666657E-005     1.7127035661791275E-019
   5.4066666666666662E-005     1.4753226344098981E-019
   5.4266666666666667E-005     9.4371123231008399E-020
   5.4466666666666658E-005     1.8185903424689297E-020
   5.4666666666666663E-005    -6.9258326961856219E-020
   5.4866666666666668E-005    -1.5245375544113305E-019
   5.5066666666666659E-005    -2.1479038367116185E-019
   5.5266666666666664E-005    -2.4182291750803329E-019
   5.5466666666666655E-005    -2.2457814044086333E-019
   5.5666666666666660E-005    -1.6221027321801358E-019
   5.5866666666666665E-005    -6.3336056280448926E-020
   5.6066666666666656E-005     5.4449926378430244E-020
   5.6266666666666661E-005     1.6707571080695928E-019
   5.6466666666666666E-005     2.4830573876376450E-019
   5.6666666666666657E-005     2.7524284956215971E-019
   5.6866666666666662E-005     2.3402963536686494E-019
   5.7066666666666667E-005     1.2454381561889013E-019
   5.7266666666666658E-005    -3.7114085126871296E-020
   5.7466666666666663E-005    -2.1928144448474487E-019
   5.7666666666666654E-005    -3.7897938923667591E-019
   5.7866666666666659E-005    -4.6948755315766753E-019
   5.8066666666666664E-005    -4.5023507949686066E-019
   5.8266666666666655E-005    -2.9731086508233808E-019
   5.8466666666666660E-005    -1.2456143682775949E-020
   5.8666666666666665E-005     3.7168014071635486E-019
   5.8866666666666656E-005     7.9186682463706696E-019
   5.9066666666666661E-005     1.1612138248875336E-018
   5.9266666666666666E-005     1.3825344763773748E-018
   5.9466666666666657E-005     1.3666278965955566E-018
   5.9666666666666662E-005     1.0526757344016943E-018
   5.9866666666666667E-005     4.2700968320335575E-019
   6.0066666666666659E-005    -4.6384307945275881E-019
   6.0266666666666663E-005    -1.5095149722103901E-018
   6.0466666666666655E-005    -2.5440223048428166E-018
   6.0666666666666660E-005    -3.3664336007790166E-018
   6.0866666666666664E-005    -3.7722256618306868E-018
   6.1066666666666656E-005    -3.5912348214913278E-018
   6.1266666666666661E-005    -2.7261670621366870E-018
   6.1466666666666665E-005    -1.1845647199895993E-018
   6.1666666666666657E-005     9.0279867241805810E-019
   6.1866666666666662E-005     3.2826693628439874E-018
   6.2066666666666666E-005     5.6021394283388712E-018
   6.2266666666666658E-005     7.4529560489262706E-018
   6.2466666666666663E-005     8.4327076439228666E-018
   6.2666666666666668E-005     8.2147604417661697E-018
   6.2866666666666659E-005     6.6161263745278119E-018
   6.3066666666666664E-005     3.6514126246448669E-018
   6.3266666666666655E-005    -4.3813063540064250E-019
   6.3466666666666660E-005    -5.1886368032072880E-018
   6.3666666666666665E-005    -9.9543808269692908E-018
   6.3866666666666656E-005    -1.3983407191508903E-017
   6.4066666666666661E-005    -1.6520391636904965E-017
   6.4266666666666666E-005    -1.6923933353100185E-017
   6.4466666666666657E-005    -1.4782073233986002E-017
   6.4666666666666662E-005    -1.0008349398854701E-017
   6.4866666666666667E-005    -2.9018416126791676E-018
   6.5066666666666658E-005     5.8415792643515333E-018
   6.5266666666666663E-005     1.5174216401340241E-017
   6.5466666666666654E-005     2.3797815823944420E-017
   6.5666666666666659E-005     3.0313949297304372E-017
   6.5866666666666664E-005     3.3409189666306347E-017
   6.6066666666666655E-005     3.2054681413250764E-017
   6.6266666666666660E-005     2.5695720528082013E-017
   6.6466666666666665E-005     1.4405663041882522E-017
   6.6666666666666656E-005    -1.0214251610521706E-018
   6.6866666666666661E-005    -1.9060360549951118E-017
   6.7066666666666666E-005    -3.7541840254902927E-017
   6.7266666666666657E-005    -5.3842724627015920E-017
   6.7466666666666662E-005    -6.5173481053714245E-017
   6.7666666666666667E-005    -6.8943975426522859E-017
   6.7866666666666658E-005    -6.3173841406038755E-017
   6.8066666666666663E-005    -4.6900303624976766E-017
   6.8266666666666655E-005    -2.0525423146235639E-017
   6.8466666666666659E-005     1.3961210626951655E-017
   6.8666666666666664E-005     5.2946123708734992E-017
   6.8866666666666656E-005     9.1391658782852102E-017
   6.9066666666666660E-005     1.2329829802751303E-016
   6.9266666666666665E-005     1.4242137706586914E-016
   6.9466666666666657E-005     1.4319170059183772E-016
   6.9666666666666661E-005     1.2174372787150537E-016
   6.9866666666666666E-005     7.6911451878527526E-017
   7.0066666666666658E-005     1.1023166834378644E-017
   7.0266666666666662E-005    -6.9684043994406702E-017
   7.0466666666666654E-005    -1.5519076932264214E-016
   7.0666666666666659E-005    -2.3247155403595214E-016
   7.0866666666666664E-005    -2.8694935154133933E-016
   7.1066666666666655E-005    -3.0454738746283347E-016
   7.1266666666666660E-005    -2.7414046637340059E-016
   7.1466666666666665E-005    -1.9009183547196953E-016
   7.1666666666666656E-005    -5.4475689849186397E-017
   7.1866666666666661E-005     1.2145696751419038E-016
   7.2066666666666666E-005     3.1698627805149969E-016
   7.2266666666666657E-005     5.0312692981765452E-016
   7.2466666666666662E-005     6.4547346358169986E-016
   7.2666666666666667E-005     7.0860552905808224E-016
   7.2866666666666658E-005     6.6169382688426449E-016
   7.3066666666666663E-005     4.8468453439664584E-016
   7.3266666666666654E-005     1.7420431641300643E-016
   7.3466666666666659E-005    -2.5181842182595080E-016
   7.3666666666666664E-005    -7.5183232027398856E-016
   7.3866666666666655E-005    -1.2615422842785851E-015
   7.4066666666666660E-005    -1.6985776155021507E-015
   7.4266666666666665E-005    -1.9711070781494328E-015
   7.4466666666666656E-005    -1.9899946423237828E-015
   7.4666666666666661E-005    -1.6834693005802126E-015
   7.4866666666666666E-005    -1.0126658990460241E-015
   7.5066666666666657E-005     1.4078360908385090E-017
   7.5266666666666662E-005     1.3306340206322895E-015
   7.5466666666666653E-005     2.8086210691424893E-015