  -3.3333333333333335E-005     0.0000000000000000     
  -3.3133333333333337E-005     0.0000000000000000     
  -3.2933333333333332E-005     0.0000000000000000     
  -3.2733333333333334E-005     0.0000000000000000     
  -3.2533333333333336E-005     0.0000000000000000     
  -3.2333333333333338E-005     0.0000000000000000     
  -3.2133333333333333E-005     0.0000000000000000     
  -3.1933333333333335E-005     0.0000000000000000     
  -3.1733333333333337E-005     0.0000000000000000     
  -3.1533333333333332E-005     0.0000000000000000     
  -3.1333333333333334E-005     0.0000000000000000     
  -3.1133333333333336E-005     0.0000000000000000     
  -3.0933333333333338E-005     0.0000000000000000     
  -3.0733333333333333E-005     0.0000000000000000     
  -3.0533333333333335E-005     0.0000000000000000     
  -3.0333333333333337E-005     0.0000000000000000     
  -3.0133333333333335E-005     0.0000000000000000     
  -2.9933333333333334E-005     0.0000000000000000     
  -2.9733333333333336E-005     0.0000000000000000     
  -2.9533333333333334E-005     0.0000000000000000     
  -2.9333333333333336E-005     0.0000000000000000     
  -2.9133333333333334E-005     0.0000000000000000     
  -2.8933333333333336E-005     0.0000000000000000     
  -2.8733333333333335E-005     0.0000000000000000     
  -2.8533333333333333E-005     0.0000000000000000     
  -2.8333333333333335E-005     0.0000000000000000     
  -2.8133333333333337E-005     0.0000000000000000     
  -2.7933333333333336E-005     0.0000000000000000     
  -2.7733333333333334E-005     0.0000000000000000     
  -2.7533333333333336E-005     0.0000000000000000     
  -2.7333333333333335E-005     0.0000000000000000     
  -2.7133333333333333E-005     0.0000000000000000     
  -2.6933333333333335E-005     0.0000000000000000     
  -2.6733333333333337E-005     0.0000000000000000     
  -2.6533333333333336E-005     0.0000000000000000     
  -2.6333333333333334E-005     0.0000000000000000     
  -2.6133333333333336E-005     0.0000000000000000     
  -2.5933333333333335E-005     0.0000000000000000     
  -2.5733333333333333E-005     0.0000000000000000     
  -2.5533333333333335E-005     0.0000000000000000     
  -2.5333333333333337E-005     0.0000000000000000     
  -2.5133333333333336E-005     0.0000000000000000     
  -2.4933333333333334E-005     0.0000000000000000     
  -2.4733333333333336E-005     0.0000000000000000     
  -2.4533333333333334E-005     0.0000000000000000     
  -2.4333333333333333E-005     0.0000000000000000     
  -2.4133333333333335E-005     0.0000000000000000     
  -2.3933333333333337E-005     0.0000000000000000     
  -2.3733333333333335E-005     0.0000000000000000     
  -2.3533333333333334E-005     0.0000000000000000     
  -2.3333333333333336E-005     0.0000000000000000     
  -2.3133333333333338E-005     0.0000000000000000     
  -2.2933333333333336E-005     0.0000000000000000     
  -2.2733333333333335E-005     0.0000000000000000     
  -2.2533333333333337E-005     0.0000000000000000     
  -2.2333333333333335E-005     0.0000000000000000     
  -2.2133333333333334E-005     0.0000000000000000     
  -2.1933333333333336E-005     0.0000000000000000     
  -2.1733333333333338E-005     0.0000000000000000     
  -2.1533333333333336E-005     0.0000000000000000     
  -2.1333333333333335E-005     0.0000000000000000     
  -2.1133333333333337E-005     0.0000000000000000     
  -2.0933333333333335E-005     0.0000000000000000     
  -2.0733333333333334E-005     0.0000000000000000     
  -2.0533333333333336E-005     0.0000000000000000     
  -2.0333333333333337E-005     0.0000000000000000     
  -2.0133333333333336E-005     0.0000000000000000     
  -1.9933333333333334E-005     0.0000000000000000     
  -1.9733333333333336E-005     0.0000000000000000     
  -1.9533333333333335E-005     0.0000000000000000     
  -1.9333333333333333E-005     0.0000000000000000     
  -1.9133333333333335E-005     0.0000000000000000     
  -1.8933333333333337E-005     0.0000000000000000     
  -1.8733333333333336E-005     0.0000000000000000     
  -1.8533333333333334E-005     0.0000000000000000     
  -1.8333333333333336E-005     0.0000000000000000     
  -1.8133333333333335E-005     0.0000000000000000     
  -1.7933333333333337E-005     1.4678056308699836E-038
  -1.7733333333333335E-005     3.2236501228997835E-038
  -1.7533333333333337E-005     4.8487718252179606E-038
  -1.7333333333333336E-005     4.8487718252179606E-038
  -1.7133333333333334E-005     2.3406452972898542E-038
  -1.6933333333333336E-005    -4.5992930544203561E-038
  -1.6733333333333335E-005    -1.8045914897342365E-037
  -1.6533333333333337E-005    -4.0221561746694484E-037
  -1.6333333333333335E-005    -7.3023308660882721E-037
  -1.6133333333333337E-005    -1.1728739899563264E-036
  -1.5933333333333336E-005    -1.7156224897148682E-036
  -1.5733333333333334E-005    -2.3038471379595521E-036
  -1.5533333333333336E-005    -2.8205530999091661E-036
  -1.5333333333333334E-005    -3.0604057125632236E-036
  -1.5133333333333336E-005    -2.7019527582410200E-036
  -1.4933333333333335E-005    -1.2857220574803577E-036
  -1.4733333333333337E-005     1.7975720382044144E-036
  -1.4533333333333335E-005     7.2912950016896144E-036
  -1.4333333333333337E-005     1.6016698851100929E-035
  -1.4133333333333336E-005     2.8754342435258664E-035
  -1.3933333333333334E-005     4.6041088890054298E-035
  -1.3733333333333336E-005     6.7858551027241448E-035
  -1.3533333333333335E-005     9.3194001433500846E-035
  -1.3333333333333337E-005     1.1946405594444161E-034
  -1.3133333333333335E-005     1.4180985917046270E-034
  -1.2933333333333337E-005     1.5230308627640796E-034
  -1.2733333333333336E-005     1.3914595249509679E-034
  -1.2533333333333338E-005     8.6011122539814623E-035
  -1.2333333333333336E-005    -2.8252636510169793E-035
  -1.2133333333333335E-005    -2.2922259227179612E-034
  -1.1933333333333337E-005    -5.4536977754453487E-034
  -1.1733333333333335E-005    -1.0048277239397574E-033
  -1.1533333333333337E-005    -1.6297859995456461E-033
  -1.1333333333333336E-005    -2.4277633601036480E-033
  -1.1133333333333337E-005    -3.3790330818615457E-033
  -1.0933333333333336E-005    -4.4196508435284993E-033
  -1.0733333333333334E-005    -5.4199590671958335E-033
  -1.0533333333333336E-005    -6.1592263624020163E-033
  -1.0333333333333335E-005    -6.2983494248996957E-033
  -1.0133333333333337E-005    -5.3544303999252759E-033
  -9.9333333333333354E-006    -2.6836095218891265E-033
  -9.7333333333333373E-006     2.5181945078543912E-033
  -9.5333333333333358E-006     1.1183176443827191E-032
  -9.3333333333333343E-006     2.4290748811913795E-032
  -9.1333333333333362E-006     4.2717038592179755E-032
  -8.9333333333333348E-006     6.6992304674125282E-032
  -8.7333333333333367E-006     9.6945475895507269E-032
  -8.5333333333333352E-006     1.3122211533921363E-031
  -8.3333333333333371E-006     1.6667737594871547E-031
  -8.1333333333333356E-006     1.9767122407382393E-031
  -7.9333333333333376E-006     2.1533178067091693E-031
  -7.7333333333333361E-006     2.0690571961478769E-031
  -7.5333333333333346E-006     1.5538082821753925E-031
  -7.3333333333333365E-006     3.9641243012554035E-032
  -7.1333333333333351E-006    -1.6450704897384877E-031
  -6.9333333333333370E-006    -4.8204051677503132E-031
  -6.7333333333333355E-006    -9.3472339127669424E-031
  -6.5333333333333374E-006    -1.5350190159026399E-030
  -6.3333333333333359E-006    -2.2776431203679560E-030
  -6.1333333333333379E-006    -3.1287563256175548E-030
  -5.9333333333333364E-006    -4.0132264870406637E-030
  -5.7333333333333349E-006    -4.8010051851425344E-030
  -5.5333333333333368E-006    -5.2944882460471141E-030
  -5.3333333333333354E-006    -5.2196974649958201E-030
  -5.1333333333333373E-006    -4.2251999038611683E-030
  -4.9333333333333358E-006    -1.8936802098526524E-030
  -4.7333333333333377E-006     2.2281555605147222E-030
  -4.5333333333333362E-006     8.5754754159153661E-030
  -4.3333333333333348E-006     1.7481830110174767E-029
  -4.1333333333333367E-006     2.9063077306905449E-029
  -3.9333333333333352E-006     4.3069159076953035E-029
  -3.7333333333333371E-006     5.8709837776112830E-029
  -3.5333333333333356E-006     7.4468151674422691E-029
  -3.3333333333333376E-006     8.7925183919246395E-029
  -3.1333333333333361E-006     9.5630829626739726E-029
  -2.9333333333333346E-006     9.3066766869404084E-029
  -2.7333333333333365E-006     7.4758040242239427E-029
  -2.5333333333333384E-006     3.4596165703570606E-029
  -2.3333333333333336E-006    -3.3563433919141560E-029
  -2.1333333333333355E-006    -1.3497694644480795E-028
  -1.9333333333333374E-006    -2.7273178201902714E-028
  -1.7333333333333393E-006    -4.4612111231514685E-028
  -1.5333333333333345E-006    -6.4874382027350445E-028
  -1.3333333333333364E-006    -8.6647703753778404E-028
  -1.1333333333333383E-006    -1.0755619626832900E-027
  -9.3333333333333343E-007    -1.2411474489188769E-027
  -7.3333333333333535E-007    -1.3167338436672594E-027
  -5.3333333333333726E-007    -1.2450461089053000E-027
  -3.3333333333333918E-007    -9.6090673086205129E-028
  -1.3333333333333432E-007    -3.9665981281763135E-028
   6.6666666666663770E-008     5.0941155177833490E-028
   2.6666666666666185E-007     1.8014578624534666E-027
   4.6666666666666672E-007     3.4913704847598909E-027
   6.6666666666666480E-007     5.5416739034677435E-027
   8.6666666666666289E-007     7.8472947734151008E-027
   1.0666666666666610E-006     1.0218246268563984E-026
   1.2666666666666658E-006     1.2366057979612207E-026
   1.4666666666666639E-006     1.3897522804649938E-026
   1.6666666666666620E-006     1.4319917760052947E-026
   1.8666666666666669E-006     1.3062057476262666E-026
   2.0666666666666649E-006     9.5153542538285521E-027
   2.2666666666666630E-006     3.0980356936947469E-027
   2.4666666666666611E-006    -6.6560316063577755E-027
   2.6666666666666660E-006    -1.9985205551071240E-026
   2.8666666666666641E-006    -3.6769564838377471E-026
   3.0666666666666622E-006    -5.6391518431521902E-026
   3.2666666666666602E-006    -7.7602126954216653E-026
   3.4666666666666651E-006    -9.8412943235335725E-026
   3.6666666666666632E-006    -1.1603803719535707E-025
   3.8666666666666613E-006    -1.2691430901467204E-025
   4.0666666666666661E-006    -1.2682918599261804E-025
   4.2666666666666642E-006    -1.1118290647251285E-025
   4.4666666666666623E-006    -7.5405759467782517E-026
   4.6666666666666604E-006    -1.5539105370559931E-026
   4.8666666666666652E-006     7.1028493564227564E-026
   5.0666666666666633E-006     1.8470159972144191E-025
   5.2666666666666614E-006     3.2275393446454257E-025
   5.4666666666666663E-006     4.7843003812786283E-025
   5.6666666666666644E-006     6.4019316509919145E-025
   5.8666666666666624E-006     7.9126796636187399E-025
   6.0666666666666605E-006     9.0964369424224038E-025
   6.2666666666666654E-006     9.6871123224247408E-025
   6.4666666666666635E-006     9.3869034163338326E-025
   6.6666666666666616E-006     7.8896769726605610E-025
   6.8666666666666664E-006     4.9139659413078718E-025
   7.0666666666666645E-006     2.4513353428701357E-026
   7.2666666666666626E-006    -6.2150036639288093E-025
   7.4666666666666607E-006    -1.4394312397055462E-024
   7.6666666666666655E-006    -2.3997073795037183E-024
   7.8666666666666636E-006    -3.4457783550243041E-024
   8.0666666666666617E-006    -4.4909890777277463E-024
   8.2666666666666598E-006    -5.4178288550200601E-024
   8.4666666666666647E-006    -6.0804621546443947E-024
   8.6666666666666627E-006    -6.3113755466684262E-024
   8.8666666666666608E-006    -5.9327735881211799E-024
   9.0666666666666657E-006    -4.7730182898273837E-024
   9.2666666666666638E-006    -2.6879415742685979E-024
   9.4666666666666619E-006     4.1378101340035102E-025
   9.6666666666666599E-006     4.5427091652567515E-024
   9.8666666666666648E-006     9.6004869147767426E-024
   1.0066666666666663E-005     1.5354532231906524E-023
   1.0266666666666661E-005     2.1419329581125492E-023
   1.0466666666666666E-005     2.7248505222007618E-023
   1.0666666666666664E-005     3.2142030298147016E-023
   1.0866666666666662E-005     3.5272539603538837E-023
   1.1066666666666660E-005     3.5733868616355706E-023
   1.1266666666666665E-005     3.2613491440430543E-023
   1.1466666666666663E-005     2.5088304296368504E-023
   1.1666666666666661E-005     1.2540585708031748E-023
   1.1866666666666666E-005    -5.3122713772924365E-024
   1.2066666666666664E-005    -2.8284071331283828E-023
   1.2266666666666662E-005    -5.5595350948685313E-023
   1.2466666666666660E-005    -8.5774285106971737E-023
   1.2666666666666665E-005    -1.1660103815151290E-022
   1.2866666666666663E-005    -1.4511444712516258E-022
   1.3066666666666661E-005    -1.6769861345210285E-022
   1.3266666666666666E-005    -1.8026356470691416E-022
   1.3466666666666664E-005    -1.7852834839446657E-022
   1.3666666666666662E-005    -1.5840632423780419E-022
   1.3866666666666660E-005    -1.1648168665199658E-022
   1.4066666666666665E-005    -5.0553311763085386E-023
   1.4266666666666663E-005     3.9791377837803601E-023
   1.4466666666666661E-005     1.5262363301462311E-022
   1.4666666666666666E-005     2.8320467480184553E-022
   1.4866666666666664E-005     4.2367273119525635E-022
   1.5066666666666662E-005     5.6296037399541789E-022
   1.5266666666666661E-005     6.8701444376171408E-022
   1.5466666666666665E-005     7.7937781264184553E-022
   1.5666666666666663E-005     8.2217163610568737E-022
   1.5866666666666662E-005     7.9748652492886457E-022
   1.6066666666666660E-005     6.8915050238820981E-022
   1.6266666666666665E-005     4.8479650140926465E-022
   1.6466666666666663E-005     1.7809968768945671E-022
   1.6666666666666661E-005    -2.2899443107409624E-022
   1.6866666666666666E-005    -7.2427579005973647E-022
   1.7066666666666664E-005    -1.2837686596819394E-021
   1.7266666666666662E-005    -1.8709991409091614E-021
   1.7466666666666660E-005    -2.4372991859458250E-021
   1.7666666666666665E-005    -2.9233820986104517E-021
   1.7866666666666663E-005    -3.2623510605015574E-021
   1.8066666666666661E-005    -3.3842089415077183E-021
   1.8266666666666666E-005    -3.2217980059053267E-021
   1.8466666666666664E-005    -2.7179460581485819E-021
   1.8666666666666662E-005    -1.8334195744328601E-021
   1.8866666666666660E-005    -5.5510907490858111E-022
   1.9066666666666665E-005     1.0962878507293689E-021
   1.9266666666666663E-005     3.0599486887803546E-021
   1.9466666666666661E-005     5.2309092480263510E-021
   1.9666666666666666E-005     7.4592780804880883E-021
   1.9866666666666664E-005     9.5535281392361618E-021
   2.0066666666666662E-005     1.1288505546736326E-020
   2.0266666666666660E-005     1.2418496463588416E-020
   2.0466666666666665E-005     1.2695296622825375E-020
   2.0666666666666663E-005     1.1890709996339836E-020
   2.0866666666666661E-005     9.8223860721229041E-021
   2.1066666666666659E-005     6.3813155316958760E-021
   2.1266666666666664E-005     1.5587772337616069E-021
   2.1466666666666662E-005    -4.5299132607724405E-021
   2.1666666666666660E-005    -1.1627787730583015E-020
   2.1866666666666665E-005    -1.9327753558897727E-020
   2.2066666666666663E-005    -2.7076073910129845E-020
   2.2266666666666661E-005    -3.4190121214944251E-020
   2.2466666666666659E-005    -3.9891844865529593E-020
   2.2666666666666664E-005    -4.3357350353563180E-020
   2.2866666666666662E-005    -4.3781403202118783E-020
   2.3066666666666660E-005    -4.0454224284489083E-020
   2.3266666666666665E-005    -3.2846130434130309E-020
   2.3466666666666663E-005    -2.0693919888711479E-020
   2.3666666666666661E-005    -4.0815151296962099E-021
   2.3866666666666660E-005     1.6493682530687602E-020
   2.4066666666666664E-005     4.0077744014678083E-020
   2.4266666666666662E-005     6.5249176403267761E-020
   2.4466666666666661E-005     9.0147545485661175E-020
   2.4666666666666665E-005     1.1254718934563942E-019
   2.4866666666666663E-005     1.2997867658669908E-019
   2.5066666666666662E-005     1.3989671430287767E-019
   2.5266666666666660E-005     1.3988881731296720E-019
   2.5466666666666665E-005     1.2791416302473744E-019
   2.5666666666666663E-005     1.0255755527003525E-019
   2.5866666666666661E-005     6.3278528453785278E-020
   2.6066666666666666E-005     1.0632889786486325E-020
   2.6266666666666664E-005    -5.3558545564350591E-020
   2.6466666666666662E-005    -1.2611907769792080E-019
   2.6666666666666660E-005    -2.0252619031914438E-019
   2.6866666666666665E-005    -2.7704095926809099E-019
   2.7066666666666663E-005    -3.4296836561251542E-019
   2.7266666666666661E-005    -3.9305024844408576E-019
   2.7466666666666666E-005    -4.1998169822516380E-019
   2.7666666666666664E-005    -4.1702897363107920E-019
   2.7866666666666662E-005    -3.7871407105519953E-019
   2.8066666666666667E-005    -3.0151852606324220E-019
   2.8266666666666658E-005    -1.8454943595804742E-019
   2.8466666666666663E-005    -3.0102821475515139E-020
   2.8666666666666668E-005     1.5594281618957879E-019
   2.8866666666666659E-005     3.6396745698612214E-019
   2.9066666666666664E-005     5.8074055381148238E-019
   2.9266666666666669E-005     7.8988298703422337E-019
   2.9466666666666660E-005     9.7267909736169101E-019
   2.9666666666666665E-005     1.1092309000625574E-018
   2.9866666666666656E-005     1.1799165853325107E-018
   3.0066666666666661E-005     1.1670818441529847E-018
   3.0266666666666666E-005     1.0568613716987892E-018
   3.0466666666666657E-005     8.4099757901117203E-019
   3.0666666666666662E-005     5.1850358792056915E-019
   3.0866666666666667E-005     9.7002384759539580E-020
   3.1066666666666658E-005    -4.0642444062996696E-019
   3.1266666666666663E-005    -9.6503336356228681E-019
   3.1466666666666668E-005    -1.5429846643482404E-018
   3.1666666666666659E-005    -2.0967595437808003E-018
   3.1866666666666664E-005    -2.5774482598057781E-018
   3.2066666666666656E-005    -2.9338657032990049E-018
   3.2266666666666660E-005    -3.1163647006902012E-018
   3.2466666666666665E-005    -3.0811483132913686E-018
   3.2666666666666657E-005    -2.7948023734632744E-018
   3.2866666666666661E-005    -2.2387076660028095E-018
   3.3066666666666666E-005    -1.4129490803203371E-018
   3.3266666666666658E-005    -3.3931931003902602E-019
   3.3466666666666662E-005     9.3697188166688476E-019
   3.3666666666666667E-005     2.3472267313345600E-018
   3.3866666666666659E-005     3.8010872341735807E-018
   3.4066666666666664E-005     5.1904061425375389E-018
   3.4266666666666668E-005     6.3951570680031525E-018
   3.4466666666666660E-005     7.2912157693925520E-018
   3.4666666666666665E-005     7.7596638667129701E-018
   3.4866666666666656E-005     7.6970868261927210E-018
   3.5066666666666661E-005     7.0261804836856615E-018
   3.5266666666666666E-005     5.7058579509856702E-018
   3.5466666666666657E-005     3.7399623092186685E-018
   3.5666666666666662E-005     1.1836795333365910E-018
   3.5866666666666667E-005    -1.8532026230643086E-018
   3.6066666666666658E-005    -5.2069055006258279E-018
   3.6266666666666663E-005    -8.6646565323082485E-018
   3.6466666666666668E-005    -1.1974293844277843E-017
   3.6666666666666659E-005    -1.4858377336771569E-017
   3.6866666666666664E-005    -1.7032305593873207E-017
   3.7066666666666669E-005    -1.8225578147568728E-017
   3.7266666666666660E-005    -1.8204939991285530E-017
   3.7466666666666665E-005    -1.6797834631800151E-017
   3.7666666666666656E-005    -1.3914352499611751E-017
   3.7866666666666661E-005    -9.5657341520643135E-018
   3.8066666666666666E-005    -3.8774972160775541E-018
   3.8266666666666657E-005     2.9045783397357993E-018
   3.8466666666666662E-005     1.0417035351279387E-017
   3.8666666666666667E-005     1.8190834907480276E-017
   3.8866666666666658E-005     2.5673292352953251E-017
   3.9066666666666663E-005     3.2259405306135188E-017
   3.9266666666666668E-005     3.7331379037289835E-017
   3.9466666666666659E-005     4.0304322407087070E-017
   3.9666666666666664E-005     4.0675349307764055E-017
   3.9866666666666655E-005     3.8072714845872109E-017
   4.0066666666666660E-005     3.2301134913677264E-017
   4.0266666666666665E-005     2.3379341843331393E-017
   4.0466666666666656E-005     1.1565956962071653E-017
   4.0666666666666661E-005    -2.6297891470408366E-018
   4.0866666666666666E-005    -1.8455170398388947E-017
   4.1066666666666657E-005    -3.4940582221550269E-017
   4.1266666666666662E-005    -5.0945997678859321E-017
   4.1466666666666667E-005    -6.5226102975562419E-017
   4.1666666666666658E-005    -7.6511374394737678E-017
   4.1866666666666663E-005    -8.3600735760790753E-017
   4.2066666666666668E-005    -8.5460204690585457E-017
   4.2266666666666660E-005    -8.1320489979557674E-017
   4.2466666666666664E-005    -7.0766174906638374E-017
   4.2666666666666656E-005    -5.3808552141550129E-017
   4.2866666666666661E-005    -3.0934682172576415E-017
   4.3066666666666665E-005    -3.1262612963339387E-018
   4.3266666666666657E-005     2.8156652333598725E-017
   4.3466666666666662E-005     6.1029762788521706E-017
   4.3666666666666666E-005     9.3276730606966547E-017
   4.3866666666666658E-005     1.2247662312911715E-016
   4.4066666666666663E-005     1.4616094811865807E-016
   4.4266666666666667E-005     1.6199174243993473E-016
   4.4466666666666659E-005     1.6794933543955805E-016
   4.4666666666666664E-005     1.6251688963234259E-016
   4.4866666666666655E-005     1.4484738530592386E-016
   4.5066666666666660E-005     1.1489849728271874E-016
   4.5266666666666665E-005     7.3521910573746534E-017
   4.5466666666666656E-005     2.2495391825338851E-017
   4.5666666666666661E-005    -3.5510688334611617E-017
   4.5866666666666666E-005    -9.7036848826171295E-017
   4.6066666666666657E-005    -1.5800743180494851E-016
   4.6266666666666662E-005    -2.1396716639111629E-016
   4.6466666666666667E-005    -2.6037030468944664E-016
   4.6666666666666658E-005    -2.9290584604510918E-016
   4.6866666666666663E-005    -3.0783826928159404E-016
   4.7066666666666668E-005    -3.0233983431383156E-016
   4.7266666666666659E-005    -2.7478876421540535E-016
   4.7466666666666664E-005    -2.2500779087232287E-016
   4.7666666666666655E-005    -1.5441912230769347E-016
   4.7866666666666660E-005    -6.6096224188074299E-017
   4.8066666666666665E-005     3.5301491048974506E-017
   4.8266666666666656E-005     1.4371752276362543E-016
   4.8466666666666661E-005     2.5200868660172780E-016
   4.8666666666666666E-005     3.5236530901109492E-016
   4.8866666666666657E-005     4.3682082012967346E-016
   4.9066666666666662E-005     4.9782079779869836E-016
   4.9266666666666667E-005     5.2881510976727250E-016
   4.9466666666666658E-005     5.2483140793721712E-016
   4.9666666666666663E-005     4.8298533336489451E-016
   4.9866666666666655E-005     4.0288380982321948E-016
   5.0066666666666659E-005     2.8688193301269380E-016
   5.0266666666666664E-005     1.4016057995519841E-016
   5.0466666666666656E-005    -2.9397092380183245E-017
   5.0666666666666660E-005    -2.1153933173626905E-016
   5.0866666666666665E-005    -3.9418414618020738E-016
   5.1066666666666657E-005    -5.6414061883251309E-016
   5.1266666666666661E-005    -7.0797639533650911E-016
   5.1466666666666666E-005    -8.1297989343407252E-016
   5.1666666666666658E-005    -8.6815503728306640E-016
   5.1866666666666662E-005    -8.6517771647346754E-016
   5.2066666666666667E-005    -7.9923943084283166E-016
   5.2266666666666659E-005    -6.6970702326308619E-016
   5.2466666666666664E-005    -4.8053312004303411E-016
   5.2666666666666655E-005    -2.4036587463458262E-016
   5.2866666666666660E-005     3.7676184312548889E-017
   5.3066666666666665E-005     3.3657664134405436E-016
   5.3266666666666656E-005     6.3632836648755040E-016
   5.3466666666666661E-005     9.1513736082886148E-016
   5.3666666666666666E-005     1.1508602773026289E-015
   5.3866666666666657E-005     1.3225900663695707E-015
   5.4066666666666662E-005     1.4122853497696439E-015
   5.4266666666666667E-005     1.4063296493592621E-015
   5.4466666666666658E-005     1.2968983924090452E-015
   5.4666666666666663E-005     1.0830201380076111E-015
   5.4866666666666668E-005     7.7122805127713195E-016
   5.5066666666666659E-005     3.7572025729816212E-016
   5.5266666666666664E-005    -8.2021998696006745E-017
   5.5466666666666655E-005    -5.7417594755422682E-016
   5.5666666666666660E-005    -1.0680548657746405E-015
   5.5866666666666665E-005    -1.5280592953080194E-015
   5.6066666666666656E-005    -1.9179974770818778E-015
   5.6266666666666661E-005    -2.2036383744779460E-015
   5.6466666666666666E-005    -2.3553315991775873E-015
   5.6666666666666657E-005    -2.3505092288506318E-015
   5.6866666666666662E-005    -2.1758827988623171E-015
   5.7066666666666667E-005    -1.8291532500355583E-015
   5.7266666666666658E-005    -1.3200719432965020E-015
   5.7466666666666663E-005    -6.7072859793703408E-016
   5.7666666666666654E-005     8.5015135198917625E-017
   5.7866666666666659E-005     9.0297132072832955E-016
   5.8066666666666664E-005     1.7309142629338861E-015
   5.8266666666666655E-005     2.5116138366272156E-015
   5.8466666666666660E-005     3.1864536677924261E-015
   5.8666666666666665E-005     3.6994244439461556E-015
   5.8866666666666656E-005     4.0012341415141244E-015
   5.9066666666666661E-005     4.0532597521674308E-015
   5.9266666666666666E-005     3.8310461641694223E-015
   5.9466666666666657E-005     3.3270814658273740E-015
   5.9666666666666662E-005     2.5525954081977468E-015
   5.9866666666666667E-005     1.5381915034230753E-015
   6.0066666666666659E-005     3.3318636550288942E-016
   6.0266666666666663E-005    -9.9638730222833573E-016
   6.0466666666666655E-005    -2.3710671419969673E-015
   6.0666666666666660E-005    -3.7023983766239655E-015
   6.0866666666666664E-005    -4.8982881959520538E-015
   6.1066666666666656E-005    -5.8689765185606941E-015
   6.1266666666666661E-005    -6.5332464373353549E-015
   6.1466666666666665E-005    -6.8244656819638032E-015
   6.1666666666666657E-005    -6.6960389700175798E-015
   6.1866666666666662E-005    -6.1258570475074530E-015
   6.2066666666666666E-005    -5.1193803123278977E-015
   6.2266666666666658E-005    -3.7110618296084825E-015
   6.2466666666666663E-005    -1.9639140743613493E-015
   6.2666666666666668E-005     3.2859743216224124E-017
   6.2866666666666659E-005     2.1681258828895990E-015
   6.3066666666666664E-005     4.3147921860605103E-015
   6.3266666666666655E-005     6.3371845680673493E-015
   6.3466666666666660E-005     8.0994162860391870E-015
   6.3666666666666665E-005     9.4742371567935364E-015
   6.3866666666666656E-005     1.0351800559598671E-014
   6.4066666666666661E-005     1.0647755565435218E-014
   6.4266666666666666E-005     1.0310092657275869E-014
   6.4466666666666657E-005     9.3242208455712218E-015
   6.4666666666666662E-005     7.7158518154351804E-015
   6.4866666666666667E-005     5.5513988791631129E-015
   6.5066666666666658E-005     2.9357310683722059E-015
   6.5266666666666663E-005     7.3209189980087187E-018
   6.5466666666666654E-005    -3.0690210199850899E-015
   6.5666666666666659E-005    -6.1114524052064464E-015
   6.5866666666666664E-005    -8.9319268534128124E-015
   6.6066666666666655E-005    -1.1347891823811941E-014
   6.6266666666666660E-005    -1.3194135657624249E-014
   6.6466666666666665E-005    -1.4334001447271517E-014
   6.6666666666666656E-005    -1.4669224900542774E-014
   6.6866666666666661E-005    -1.4147696550522934E-014
   6.7066666666666666E-005    -1.2768551576572851E-014
   6.7266666666666657E-005    -1.0584182354611994E-014
   6.7466666666666662E-005    -7.6989060742924109E-015
   6.7666666666666667E-005    -4.2642810703168946E-015
   6.7866666666666658E-005    -4.7123963336443754E-016
   6.8066666666666663E-005     3.4605499296338918E-015
   6.8266666666666655E-005     7.2954964687671833E-015
   6.8466666666666659E-005     1.0796331073614253E-014
   6.8666666666666664E-005     1.3738905744683800E-014
   6.8866666666666656E-005     1.5926623287885154E-014
   6.9066666666666660E-005     1.7203574583781953E-014
   6.9266666666666665E-005     1.7465512746456767E-014
   6.9466666666666657E-005     1.6667914336070122E-014
   6.9666666666666661E-005     1.4830549101610933E-014
   6.9866666666666666E-005     1.2038196570769884E-014
   7.0066666666666658E-005     8.4373544799063935E-015
   7.0266666666666662E-005     4.2290792280619532E-015
   7.0466666666666654E-005    -3.4170404941113986E-016
   7.0666666666666659E-005    -4.9998271175371103E-015
   7.0866666666666664E-005    -9.4556727356885639E-015
   7.1066666666666655E-005    -1.3422228077792676E-014
   7.1266666666666660E-005    -1.6632396550525855E-014
   7.1466666666666665E-005    -1.8855551411141487E-014
   7.1666666666666656E-005    -1.9912352067783315E-014
   7.1866666666666661E-005    -1.9686937965794106E-014
   7.2066666666666666E-005    -1.8135785164212145E-014
   7.2266666666666657E-005    -1.5292673336973935E-014
   7.2466666666666662E-005    -1.1269469278390402E-014
   7.2666666666666667E-005    -6.2526422096018976E-015
   7.2866666666666658E-005    -4.9566515188749537E-016
   7.3066666666666663E-005     5.6923163624660218E-015
   7.3266666666666654E-005     1.1960985282462918E-014
   7.3466666666666659E-005     1.7935815931958456E-014
   7.3666666666666664E-005     2.3236671782686166E-014
   7.3866666666666655E-005     2.7497169580344150E-014
   7.4066666666666660E-005     3.0383922239090796E-014
   7.4266666666666665E-005     3.1614837294304324E-014
   7.4466666666666656E-005     3.0975639127251917E-014
   7.4666666666666661E-005     2.8334014415308875E-014
   7.4866666666666666E-005     2.3650747227083220E-014
   7.5066666666666657E-005     1.6987437186631073E-014
   7.5266666666666662E-005     8.5104635876498066E-015
   7.5466666666666653E-005    -1.5090323942138460E-015