  -3.3333333333333335E-005     0.0000000000000000     
  -3.3133333333333337E-005     0.0000000000000000     
  -3.2933333333333332E-005     0.0000000000000000     
  -3.2733333333333334E-005     0.0000000000000000     
  -3.2533333333333336E-005     0.0000000000000000     
  -3.2333333333333338E-005     0.0000000000000000     
  -3.2133333333333333E-005     0.0000000000000000     
  -3.1933333333333335E-005     0.0000000000000000     
  -3.1733333333333337E-005     0.0000000000000000     
  -3.1533333333333332E-005     0.0000000000000000     
  -3.1333333333333334E-005     0.0000000000000000     
  -3.1133333333333336E-005     0.0000000000000000     
  -3.0933333333333338E-005     0.0000000000000000     
  -3.0733333333333333E-005     0.0000000000000000     
  -3.0533333333333335E-005     0.0000000000000000     
  -3.0333333333333337E-005     0.0000000000000000     
  -3.0133333333333335E-005     0.0000000000000000     
  -2.9933333333333334E-005     0.0000000000000000     
  -2.9733333333333336E-005     0.0000000000000000     
  -2.9533333333333334E-005     0.0000000000000000     
  -2.9333333333333336E-005     0.0000000000000000     
  -2.9133333333333334E-005     0.0000000000000000     
  -2.8933333333333336E-005     0.0000000000000000     
  -2.8733333333333335E-005     0.0000000000000000     
  -2.8533333333333333E-005     0.0000000000000000     
  -2.8333333333333335E-005     0.0000000000000000     
  -2.8133333333333337E-005     0.0000000000000000     
  -2.7933333333333336E-005     0.0000000000000000     
  -2.7733333333333334E-005     0.0000000000000000     
  -2.7533333333333336E-005     0.0000000000000000     
  -2.7333333333333335E-005     0.0000000000000000     
  -2.7133333333333333E-005     0.0000000000000000     
  -2.6933333333333335E-005     0.0000000000000000     
  -2.6733333333333337E-005     0.0000000000000000     
  -2.6533333333333336E-005     0.0000000000000000     
  -2.6333333333333334E-005     0.0000000000000000     
  -2.6133333333333336E-005     0.0000000000000000     
  -2.5933333333333335E-005     0.0000000000000000     
  -2.5733333333333333E-005     0.0000000000000000     
  -2.5533333333333335E-005     0.0000000000000000     
  -2.5333333333333337E-005     0.0000000000000000     
  -2.5133333333333336E-005     0.0000000000000000     
  -2.4933333333333334E-005     0.0000000000000000     
  -2.4733333333333336E-005     0.0000000000000000     
  -2.4533333333333334E-005     0.0000000000000000     
  -2.4333333333333333E-005     0.0000000000000000     
  -2.4133333333333335E-005     0.0000000000000000     
  -2.3933333333333337E-005     0.0000000000000000     
  -2.3733333333333335E-005     0.0000000000000000     
  -2.3533333333333334E-005     0.0000000000000000     
  -2.3333333333333336E-005     0.0000000000000000     
  -2.3133333333333338E-005     0.0000000000000000     
  -2.2933333333333336E-005     0.0000000000000000     
  -2.2733333333333335E-005     0.0000000000000000     
  -2.2533333333333337E-005     0.0000000000000000     
  -2.2333333333333335E-005     0.0000000000000000     
  -2.2133333333333334E-005     0.0000000000000000     
  -2.1933333333333336E-005     0.0000000000000000     
  -2.1733333333333338E-005     0.0000000000000000     
  -2.1533333333333336E-005     0.0000000000000000     
  -2.1333333333333335E-005     0.0000000000000000     
  -2.1133333333333337E-005     0.0000000000000000     
  -2.0933333333333335E-005     0.0000000000000000     
  -2.0733333333333334E-005     0.0000000000000000     
  -2.0533333333333336E-005     0.0000000000000000     
  -2.0333333333333337E-005     0.0000000000000000     
  -2.0133333333333336E-005     0.0000000000000000     
  -1.9933333333333334E-005     0.0000000000000000     
  -1.9733333333333336E-005     0.0000000000000000     
  -1.9533333333333335E-005     0.0000000000000000     
  -1.9333333333333333E-005     0.0000000000000000     
  -1.9133333333333335E-005     0.0000000000000000     
  -1.8933333333333337E-005     0.0000000000000000     
  -1.8733333333333336E-005     0.0000000000000000     
  -1.8533333333333334E-005     0.0000000000000000     
  -1.8333333333333336E-005     0.0000000000000000     
  -1.8133333333333335E-005     0.0000000000000000     
  -1.7933333333333337E-005     0.0000000000000000     
  -1.7733333333333335E-005     0.0000000000000000     
  -1.7533333333333337E-005     0.0000000000000000     
  -1.7333333333333336E-005     0.0000000000000000     
  -1.7133333333333334E-005     0.0000000000000000     
  -1.6933333333333336E-005    -2.3180560857852453E-038
  -1.6733333333333335E-005    -8.2737930215963061E-038
  -1.6533333333333337E-005    -1.7778383478688557E-037
  -1.6333333333333335E-005    -3.1406428070670386E-037
  -1.6133333333333337E-005    -4.9047508962708084E-037
  -1.5933333333333336E-005    -6.9307827439857898E-037
  -1.5733333333333334E-005    -8.9142859680356532E-037
  -1.5533333333333336E-005    -1.0112959813327662E-036
  -1.5333333333333334E-005    -9.4972709707456355E-037
  -1.5133333333333336E-005    -5.4792088296695584E-037
  -1.4933333333333335E-005     4.0660363226774386E-037
  -1.4733333333333337E-005     2.1729623637506472E-036
  -1.4533333333333335E-005     5.0299621380989058E-036
  -1.4333333333333337E-005     9.2230439014007535E-036
  -1.4133333333333336E-005     1.4873153208434231E-035
  -1.3933333333333334E-005     2.1842052526213079E-035
  -1.3733333333333336E-005     2.9553845045654606E-035
  -1.3533333333333335E-005     3.6778727199396091E-035
  -1.3333333333333337E-005     4.1408013937616936E-035
  -1.3133333333333335E-005     4.0266524549106399E-035
  -1.2933333333333337E-005     2.9039164486874164E-035
  -1.2733333333333336E-005     2.4165104582940468E-036
  -1.2533333333333338E-005    -4.5409814559323521E-035
  -1.2333333333333336E-005    -1.1976155703424542E-034
  -1.2133333333333335E-005    -2.2387478174177589E-034
  -1.1933333333333337E-005    -3.5662494294244555E-034
  -1.1733333333333335E-005    -5.0963640231846817E-034
  -1.1533333333333337E-005    -6.6403404963237355E-034
  -1.1333333333333336E-005    -7.8737183011969241E-034
  -1.1133333333333337E-005    -8.3161936603006263E-034
  -1.0933333333333336E-005    -7.3346733261082862E-034
  -1.0733333333333334E-005    -4.1855267153202628E-034
  -1.0533333333333336E-005     1.8860190413175643E-034
  -1.0333333333333335E-005     1.1472520888533243E-033
  -1.0133333333333337E-005     2.4746185649274244E-033
  -9.9333333333333354E-006     4.1118116482511894E-033
  -9.7333333333333373E-006     5.8838770962974651E-033
  -9.5333333333333358E-006     7.4594836428587504E-033
  -9.3333333333333343E-006     8.3197912240271194E-033
  -9.1333333333333362E-006     7.7506602057131544E-033
  -8.9333333333333348E-006     4.8768461469693813E-033
  -8.7333333333333367E-006    -1.2398827885725476E-033
  -8.5333333333333352E-006    -1.1416262279915865E-032
  -8.3333333333333371E-006    -2.6058546848124601E-032
  -8.1333333333333356E-006    -4.4762193051099141E-032
  -7.9333333333333376E-006    -6.5813977381917513E-032
  -7.7333333333333361E-006    -8.5641587202110168E-032
  -7.5333333333333346E-006    -9.8298258304320574E-032
  -7.3333333333333365E-006    -9.5121572983299654E-032
  -7.1333333333333351E-006    -6.4761228151208088E-032
  -6.9333333333333370E-006     6.1786334067921076E-033
  -6.7333333333333355E-006     1.3160510315365504E-031
  -6.5333333333333374E-006     3.2323767168798278E-031
  -6.3333333333333359E-006     5.8653707450663326E-031
  -6.1333333333333379E-006     9.1520078109823769E-031
  -5.9333333333333364E-006     1.2844157514090287E-030
  -5.7333333333333349E-006     1.6434281830710669E-030
  -5.5333333333333368E-006     1.9084760161871304E-030
  -5.3333333333333354E-006     1.9577059076786639E-030
  -5.1333333333333373E-006     1.6303109826695630E-030
  -4.9333333333333358E-006     7.3267735338730201E-031
  -4.7333333333333377E-006    -9.4531798080133342E-031
  -4.5333333333333362E-006    -3.6007400650433351E-030
  -4.3333333333333348E-006    -7.3722567016905168E-030
  -4.1333333333333367E-006    -1.2277951601796380E-029
  -3.9333333333333352E-006    -1.8137628816464618E-029
  -3.7333333333333371E-006    -2.4484530948192754E-029
  -3.5333333333333356E-006    -3.0476032801339606E-029
  -3.3333333333333376E-006    -3.4818463158135964E-029
  -3.1333333333333361E-006    -3.5727165054146472E-029
  -2.9333333333333346E-006    -3.0948502537149791E-029
  -2.7333333333333365E-006    -1.7874516693405941E-029
  -2.5333333333333384E-006     6.2181074474882007E-030
  -2.3333333333333336E-006     4.3777004535357182E-029
  -2.1333333333333355E-006     9.6413756260319594E-029
  -1.9333333333333374E-006     1.6417575366454409E-028
  -1.7333333333333393E-006     2.4468008274829234E-028
  -1.5333333333333345E-006     3.3217707827412177E-028
  -1.3333333333333364E-006     4.1665664713370680E-028
  -1.1333333333333383E-006     4.8316170441532019E-028
  -9.3333333333333343E-007     5.1152232284913470E-028
  -7.3333333333333535E-007     4.7676501699452965E-028
  -5.3333333333333726E-007     3.5047167940885056E-028
  -3.3333333333333918E-007     1.0335061286373107E-028
  -1.3333333333333432E-007    -2.9077550670437519E-028
   6.6666666666663770E-008    -8.4947839466263342E-028
   2.6666666666666185E-007    -1.5748278118110901E-027
   4.6666666666666672E-007    -2.4454447320608318E-027
   6.6666666666666480E-007    -3.4081818667420287E-027
   8.6666666666666289E-007    -4.3704789264309331E-027
   1.0666666666666610E-006    -5.1948177723434911E-027
   1.2666666666666658E-006    -5.6970579313809057E-027
   1.4666666666666639E-006    -5.6506634345785838E-027
   1.6666666666666620E-006    -4.7988943388400962E-027
   1.8666666666666669E-006    -2.8768249210263845E-027
   2.0666666666666649E-006     3.5553239737546829E-028
   2.2666666666666630E-006     5.0687125018168814E-027
   2.4666666666666611E-006     1.1309083744601182E-026
   2.6666666666666660E-006     1.8937057467809353E-026
   2.8666666666666641E-006     2.7563656682061416E-026
   3.0666666666666622E-006     3.6493383402864430E-026
   3.2666666666666602E-006     4.4683836521910560E-026
   3.4666666666666651E-006     5.0734556820839183E-026
   3.6666666666666632E-006     5.2918866445077499E-026
   3.8666666666666613E-006     4.9272172021418711E-026
   4.0666666666666661E-006     3.7748421043728217E-026
   4.2666666666666642E-006     1.6451754267398466E-026
   4.4666666666666623E-006    -1.6056465620404741E-026
   4.6666666666666604E-006    -6.0385028156590121E-026
   4.8666666666666652E-006    -1.1589673248570936E-025
   5.0666666666666633E-006    -1.8028527287712687E-025
   5.2666666666666614E-006    -2.4919652540149946E-025
   5.4666666666666663E-006    -3.1595986991832660E-025
   5.6666666666666644E-006    -3.7150627796429974E-025
   5.8666666666666624E-006    -4.0455498929095183E-025
   6.0666666666666605E-006    -4.0214760767534689E-025
   6.2666666666666654E-006    -3.5059424096827950E-025
   6.4666666666666635E-006    -2.3686835508612521E-025
   6.6666666666666616E-006    -5.0445044868623071E-026
   6.8666666666666664E-006     2.1447998955788713E-025
   7.0666666666666645E-006     5.5652297831357086E-025
   7.2666666666666626E-006     9.6460649312976970E-025
   7.4666666666666607E-006     1.4157064451962506E-024
   7.6666666666666655E-006     1.8732135255349365E-024
   7.8666666666666636E-006     2.2863261765333390E-024
   8.0666666666666617E-006     2.5909124717873187E-024
   8.2666666666666598E-006     2.7122526896456991E-024
   8.4666666666666647E-006     2.5699942471635731E-024
   8.6666666666666627E-006     2.0854991505735317E-024
   8.8666666666666608E-006     1.1915406735326401E-024
   9.0666666666666657E-006    -1.5598181191599670E-025
   9.2666666666666638E-006    -1.9649945336290067E-024
   9.4666666666666619E-006    -4.1939332486750064E-024
   9.6666666666666599E-006    -6.7396094779285577E-024
   9.8666666666666648E-006    -9.4280490206435764E-024
   1.0066666666666663E-005    -1.2010333917925719E-023
   1.0266666666666661E-005    -1.4165562653279225E-023
   1.0466666666666666E-005    -1.5512902369516884E-023
   1.0666666666666664E-005    -1.5634304907386777E-023
   1.0866666666666662E-005    -1.4108753624050640E-023
   1.1066666666666660E-005    -1.0557842987326626E-023
   1.1266666666666665E-005    -4.7011948709897263E-024
   1.1466666666666663E-005     3.5814001107108056E-024
   1.1666666666666661E-005     1.4185908953746686E-023
   1.1866666666666666E-005     2.6724556430534305E-023
   1.2066666666666664E-005     4.0478873272147334E-023
   1.2266666666666662E-005     5.4374301552486297E-023
   1.2466666666666660E-005     6.6985694626509777E-023
   1.2666666666666665E-005     7.6582458906674782E-023
   1.2866666666666663E-005     8.1220279453552220E-023
   1.3066666666666661E-005     7.8883496747444814E-023
   1.3266666666666666E-005     6.7677639236358956E-023
   1.3466666666666664E-005     4.6066255156970167E-023
   1.3666666666666662E-005     1.3139557538174294E-023
   1.3866666666666660E-005    -3.1104611943465347E-023
   1.4066666666666665E-005    -8.5493822967060321E-023
   1.4266666666666663E-005    -1.4746054470083883E-022
   1.4466666666666661E-005    -2.1290462210281674E-022
   1.4666666666666666E-005    -2.7617689601296155E-022
   1.4866666666666664E-005    -3.3021959830621638E-022
   1.5066666666666662E-005    -3.6689307283589359E-022
   1.5266666666666661E-005    -3.7750621812811983E-022
   1.5466666666666665E-005    -3.5355180671969791E-022
   1.5666666666666663E-005    -2.8762691544054417E-022
   1.5866666666666662E-005    -1.7449330593159937E-022
   1.6066666666666660E-005    -1.2206606455449233E-023
   1.6266666666666665E-005     1.9678358686146498E-022
   1.6466666666666663E-005     4.4468298748764862E-022
   1.6666666666666661E-005     7.1768914228905208E-022
   1.6866666666666666E-005     9.9575794132289983E-022
   1.7066666666666664E-005     1.2529386123542580E-021
   1.7266666666666662E-005     1.4583908086874667E-021
   1.7466666666666660E-005     1.5781598365037003E-021
   1.7666666666666665E-005     1.5777259503840542E-021
   1.7866666666666663E-005     1.4252717773136471E-021
   1.8066666666666661E-005     1.0955237789892335E-021
   1.8266666666666666E-005     5.7392859504741497E-022
   1.8466666666666664E-005    -1.3916646114334512E-022
   1.8666666666666662E-005    -1.0247440988598304E-021
   1.8866666666666660E-005    -2.0422356251272250E-021
   1.9066666666666665E-005    -3.1280331656736414E-021
   1.9266666666666663E-005    -4.1958886013562214E-021
   1.9466666666666661E-005    -5.1396192853353974E-021
   1.9666666666666666E-005    -5.8384257481261000E-021
   1.9866666666666664E-005    -6.1649270221565646E-021
   2.0066666666666662E-005    -5.9957936284900458E-021
   2.0266666666666660E-005    -5.2245628178676373E-021
   2.0466666666666665E-005    -3.7759074362748118E-021
   2.0666666666666663E-005    -1.6203322142790707E-021
   2.0866666666666661E-005     1.2120348743757767E-021
   2.1066666666666659E-005     4.6200937189991933E-021
   2.1266666666666664E-005     8.4245283850907142E-021
   2.1466666666666662E-005     1.2366321077099354E-020
   2.1666666666666660E-005     1.6112497671142706E-020
   2.1866666666666665E-005     1.9270216038711274E-020
   2.2066666666666663E-005     2.1409768776280831E-020
   2.2266666666666661E-005     2.2096325453525576E-020
   2.2466666666666659E-005     2.0929403022586267E-020
   2.2666666666666664E-005     1.7588042481095257E-020
   2.2866666666666662E-005     1.1878720724219218E-020
   2.3066666666666660E-005     3.7820668622227774E-021
   2.3266666666666665E-005    -6.5062460574823089E-021
   2.3466666666666663E-005    -1.8545584819482081E-020
   2.3666666666666661E-005    -3.1636598508121716E-020
   2.3866666666666660E-005    -4.4828458761246062E-020
   2.4066666666666664E-005    -5.6950926347529930E-020
   2.4266666666666662E-005    -6.6673691278009180E-020
   2.4466666666666661E-005    -7.2593260697728604E-020
   2.4666666666666665E-005    -7.3345251885070269E-020
   2.4866666666666663E-005    -6.7737122428325595E-020
   2.5066666666666662E-005    -5.4893411509032307E-020
   2.5266666666666660E-005    -3.4402664627104898E-020
   2.5466666666666665E-005    -6.4530354835372046E-021
   2.5666666666666663E-005     2.8058373505756440E-020
   2.5866666666666661E-005     6.7457787412875559E-020
   2.6066666666666666E-005     1.0928344484123488E-019
   2.6266666666666664E-005     1.5034326873168935E-019
   2.6466666666666662E-005     1.8685039392822852E-019
   2.6666666666666660E-005     2.1463999189604205E-019
   2.6866666666666665E-005     2.2946416707224335E-019
   2.7066666666666663E-005     2.2735379668507330E-019
   2.7266666666666661E-005     2.0502842459681436E-019
   2.7466666666666666E-005     1.6032626597534749E-019
   2.7666666666666664E-005     9.2619956024839497E-020
   2.7866666666666662E-005     3.1778897807287845E-021
   2.8066666666666667E-005    -1.0457203086728598E-019
   2.8266666666666658E-005    -2.2491880960626447E-019
   2.8466666666666663E-005    -3.4992314510649642E-019
   2.8666666666666668E-005    -4.6968007944523925E-019
   2.8866666666666659E-005    -5.7280613397829717E-019
   2.9066666666666664E-005    -6.4715064589272564E-019
   2.9266666666666669E-005    -6.8071050071734423E-019
   2.9466666666666660E-005    -6.6270608750451503E-019
   2.9666666666666665E-005    -5.8475367225207168E-019
   2.9866666666666656E-005    -4.4204852467321163E-019
   3.0066666666666661E-005    -2.3445684830385443E-019
   3.0266666666666666E-005     3.2596202335691387E-020
   3.0466666666666657E-005     3.4755888197006087E-019
   3.0666666666666662E-005     6.9261311274409946E-019
   3.0866666666666667E-005     1.0440542376722073E-018
   3.1066666666666658E-005     1.3732502011820796E-018
   3.1266666666666663E-005     1.6482025552528684E-018
   3.1466666666666668E-005     1.8356808697389041E-018
   3.1666666666666659E-005     1.9038486172242460E-018
   3.1866666666666664E-005     1.8252385416860347E-018
   3.2066666666666656E-005     1.5798833303178527E-018
   3.2266666666666660E-005     1.1583566396541988E-018
   3.2466666666666665E-005     5.6444612971995343E-019
   3.2666666666666657E-005    -1.8283542725595805E-019
   3.2866666666666661E-005    -1.0481914849034678E-018
   3.3066666666666666E-005    -1.9801897363422243E-018
   3.3266666666666658E-005    -2.9128129227337647E-018
   3.3466666666666662E-005    -3.7685190655058367E-018
   3.3666666666666667E-005    -4.4628064952073200E-018
   3.3866666666666659E-005    -4.9101499063790601E-018
   3.4066666666666664E-005    -5.0310258092914341E-018
   3.4266666666666668E-005    -4.7596204056872727E-018
   3.4466666666666660E-005    -4.0516671250858008E-018
   3.4666666666666665E-005    -2.8917719294922533E-018
   3.4866666666666656E-005    -1.2995229727997688E-018
   3.5066666666666661E-005     6.6634340745306384E-019
   3.5266666666666666E-005     2.9063849021936151E-018
   3.5466666666666657E-005     5.2820647854436211E-018
   3.5666666666666662E-005     7.6209084548602625E-018
   3.5866666666666667E-005     9.7253460958819331E-018
   3.6066666666666658E-005     1.1385079859066520E-017
   3.6266666666666663E-005     1.2392502299914240E-017
   3.6466666666666668E-005     1.2560354616994113E-017
   3.6666666666666659E-005     1.1740481317972379E-017
   3.6866666666666664E-005     9.8422937180652928E-018
   3.7066666666666669E-005     6.8493358861667246E-018
   3.7266666666666660E-005     2.8322680717427919E-018
   3.7466666666666665E-005    -2.0433726866611685E-018
   3.7666666666666656E-005    -7.5160947450824432E-018
   3.7866666666666661E-005    -1.3235172696617936E-017
   3.8066666666666666E-005    -1.8775800493065526E-017
   3.8266666666666657E-005    -2.3662694216522658E-017
   3.8466666666666662E-005    -2.7401464558478638E-017
   3.8666666666666667E-005    -2.9516295723897037E-017
   3.8866666666666658E-005    -2.9591770991708826E-017
   3.9066666666666663E-005    -2.7315957244197806E-017
   3.9266666666666668E-005    -2.2521375222740367E-017
   3.9466666666666659E-005    -1.5220128234059385E-017
   3.9666666666666664E-005    -5.6294161226281136E-018
   3.9866666666666655E-005     5.8160921753175495E-018
   4.0066666666666660E-005     1.8467961919381467E-017
   4.0266666666666665E-005     3.1485802836218445E-017
   4.0466666666666656E-005     4.3878030512169318E-017
   4.0666666666666661E-005     5.4560872908667108E-017
   4.0866666666666666E-005     6.2433441965909891E-017
   4.1066666666666657E-005     6.6464888660921833E-017
   4.1266666666666662E-005     6.5788254919853456E-017
   4.1466666666666667E-005     5.9794107154600192E-017
   4.1666666666666658E-005     4.8216364523160884E-017
   4.1866666666666663E-005     3.1202033563998454E-017
   4.2066666666666668E-005     9.3569239869538774E-018
   4.2266666666666660E-005    -1.6239770614096350E-017
   4.2466666666666664E-005    -4.4057508852758624E-017
   4.2666666666666656E-005    -7.2176332562584074E-017
   4.2866666666666661E-005    -9.8389037664789279E-017
   4.3066666666666665E-005    -1.2034076337816643E-016
   4.3266666666666657E-005    -1.3569957505936523E-016
   4.3466666666666662E-005    -1.4234841311839706E-016
   4.3666666666666666E-005    -1.3858536337110143E-016
   4.3866666666666658E-005    -1.2331721068503844E-016
   4.4066666666666663E-005    -9.6229401434311333E-017
   4.4266666666666667E-005    -5.7915447634594258E-017
   4.4466666666666659E-005    -9.9498429141288249E-018
   4.4666666666666664E-005     4.5109044008493184E-017
   4.4866666666666655E-005     1.0379543720887666E-016
   4.5066666666666660E-005     1.6189630564958081E-016
   4.5266666666666665E-005     2.1469299421757442E-016
   4.5466666666666656E-005     2.5727543158863663E-016
   4.5666666666666661E-005     2.8491271375922556E-016
   4.5866666666666666E-005     2.9345723802399212E-016
   4.6066666666666657E-005     2.7975412429176926E-016
   4.6266666666666662E-005     2.4202296224698765E-016
   4.6466666666666667E-005     1.8017797656884798E-016
   4.6666666666666658E-005     9.6052331843665781E-017
   4.6866666666666663E-005    -6.5034345965960376E-018
   4.7066666666666668E-005    -1.2167294768085043E-016
   4.7266666666666659E-005    -2.4189016336272594E-016
   4.7466666666666664E-005    -3.5822323005562805E-016
   4.7666666666666655E-005    -4.6091673695713097E-016
   4.7866666666666660E-005    -5.4006757189463146E-016
   4.8066666666666665E-005    -5.8639736243368550E-016
   4.8266666666666656E-005    -5.9207115969130922E-016
   4.8466666666666661E-005    -5.5150219904520929E-016
   4.8666666666666666E-005    -4.6207658975971812E-016
   4.8866666666666657E-005    -3.2473027677177213E-016
   4.9066666666666662E-005    -1.4431399277717007E-016
   4.9266666666666667E-005     7.0308882994239458E-017
   4.9466666666666658E-005     3.0647150221186042E-016
   4.9666666666666663E-005     5.4824006340709617E-016
   4.9866666666666655E-005     7.7727464891066598E-016
   5.0066666666666659E-005     9.7398412780640674E-016
   5.0266666666666664E-005     1.1189187707407876E-015
   5.0466666666666656E-005     1.1943186790900500E-015
   5.0666666666666660E-005     1.1857127184668279E-015
   5.0866666666666665E-005     1.0834491601953954E-015
   5.1066666666666657E-005     8.8402774650034235E-016
   5.1266666666666661E-005     5.9110538331276171E-016
   5.1466666666666666E-005     2.1605899366369959E-016
   5.1666666666666658E-005    -2.2199071245376225E-016
   5.1866666666666662E-005    -6.9675760276880351E-016
   5.2066666666666667E-005    -1.1759944977047425E-015
   5.2266666666666659E-005    -1.6233007386884770E-015
   5.2466666666666664E-005    -2.0004595226288729E-015
   5.2666666666666655E-005    -2.2701827651219015E-015
   5.2866666666666660E-005    -2.3990948269469016E-015
   5.3066666666666665E-005    -2.3607511277323572E-015
   5.3266666666666656E-005    -2.1384583421537803E-015
   5.3466666666666661E-005    -1.7276589035593510E-015
   5.3666666666666666E-005    -1.1376453986551593E-015
   5.3866666666666657E-005    -3.9239915659276695E-016
   5.4066666666666662E-005     4.6960538917182877E-016
   5.4266666666666667E-005     1.3967285309021346E-015
   5.4466666666666658E-005     2.3266434402870314E-015
   5.4666666666666663E-005     3.1898985507889093E-015
   5.4866666666666668E-005     3.9144047940910861E-015
   5.5066666666666659E-005     4.4306002246750128E-015
   5.5266666666666664E-005     4.6769741569440294E-015
   5.5466666666666655E-005     4.6055599621280720E-015
   5.5666666666666660E-005     4.1869774554186782E-015
   5.5866666666666665E-005     3.4145954276300306E-015
   5.6066666666666656E-005     2.3074107101866753E-015
   5.6266666666666661E-005     9.1128738432535387E-016
   5.6466666666666666E-005    -7.0169347551069113E-016
   5.6666666666666657E-005    -2.4359221254276241E-015
   5.6866666666666662E-005    -4.1769811960916566E-015
   5.7066666666666667E-005    -5.7982479969155391E-015
   5.7266666666666658E-005    -7.1690624018293757E-015
   5.7466666666666663E-005    -8.1640067834320637E-015
   5.7666666666666654E-005    -8.6727000432021591E-015
   5.7866666666666659E-005    -8.6094266820422628E-015
   5.8066666666666664E-005    -7.9218663218334241E-015
   5.8266666666666655E-005    -6.5981808301048168E-015
   5.8466666666666660E-005    -4.6717788803620451E-015
   5.8666666666666665E-005    -2.2231828127028917E-015
   5.8866666666666656E-005     6.2141179864904695E-016
   5.9066666666666661E-005     3.6950787414102675E-015
   5.9266666666666666E-005     6.7985663790520821E-015
   5.9466666666666657E-005     9.7118561565197326E-015
   5.9666666666666662E-005     1.2208303656468123E-014
   5.9866666666666667E-005     1.4070551330785854E-014
   6.0066666666666659E-005     1.5107200226579555E-014
   6.0266666666666663E-005     1.5169062430849325E-014
   6.0466666666666655E-005     1.4163791023553713E-014
   6.0666666666666660E-005     1.2067629271621076E-014
   6.0866666666666664E-005     8.9332024850313774E-015
   6.1066666666666656E-005     4.8924072461992672E-015
   6.1266666666666661E-005     1.5378846657379324E-016
   6.1466666666666665E-005    -5.0058918734394511E-015
   6.1666666666666657E-005    -1.0255764811071925E-014
   6.1866666666666662E-005    -1.5230091154698998E-014
   6.2066666666666666E-005    -1.9551661721919911E-014
   6.2266666666666658E-005    -2.2857976904495925E-014
   6.2466666666666663E-005    -2.4828578727492320E-014
   6.2666666666666668E-005    -2.5211600249977137E-014
   6.2866666666666659E-005    -2.3847553638311862E-014
   6.3066666666666664E-005    -2.0688427370980228E-014
   6.3266666666666655E-005    -1.5810307029502299E-014
   6.3466666666666660E-005    -9.4180924249177324E-015
   6.3666666666666665E-005    -1.8413492539265993E-015
   6.3866666666666656E-005     6.4791320434341194E-015
   6.4066666666666661E-005     1.5013816538210663E-014
   6.4266666666666666E-005     2.3175056912036994E-014
   6.4466666666666657E-005     3.0354306579122997E-014
   6.4666666666666662E-005     3.5963768719787445E-014
   6.4866666666666667E-005     3.9479826200762569E-014
   6.5066666666666658E-005     4.0485318683657415E-014
   6.5266666666666663E-005     3.8707528664510410E-014
   6.5466666666666654E-005     3.4048854230875336E-014
   6.5666666666666659E-005     2.6607459725075389E-014
   6.5866666666666664E-005     1.6685634265326682E-014
   6.6066666666666655E-005     4.7843813227876637E-015
   6.6266666666666660E-005    -8.4164192135820562E-015
   6.6466666666666665E-005    -2.2091957576448815E-014
   6.6666666666666656E-005    -3.5319183423190501E-014
   6.6866666666666661E-005    -4.7133903903354493E-014
   6.7066666666666666E-005    -5.6595055248145898E-014
   6.7266666666666657E-005    -6.2852128287094883E-014
   6.7466666666666662E-005    -6.5211331885632606E-014
   6.7666666666666667E-005    -6.3195711955555539E-014
   6.7866666666666658E-005    -5.6594689329912684E-014
   6.8066666666666663E-005    -4.5498757620656902E-014
   6.8266666666666655E-005    -3.0315925822217010E-014
   6.8466666666666659E-005    -1.1767471288300253E-014
   6.8666666666666664E-005     9.1381725998056565E-015
   6.8866666666666656E-005     3.1153082365306325E-014
   6.9066666666666660E-005     5.2857332633006113E-014
   6.9266666666666665E-005     7.2743033656137018E-014
   6.9466666666666657E-005     8.9310320478073330E-014
   6.9666666666666661E-005     1.0116960844379005E-013
   6.9866666666666666E-005     1.0714354886165803E-013
   7.0066666666666658E-005     1.0636179843771451E-013
   7.0266666666666662E-005     9.8341765232459050E-014
   7.0466666666666654E-005     8.3048876749116513E-014
   7.0666666666666659E-005     6.0931064338985708E-014
   7.0866666666666664E-005     3.2923438823308226E-014
   7.1066666666666655E-005     4.2088262467766292E-016
   7.1266666666666660E-005    -3.4781686808049023E-014
   7.1466666666666665E-005    -7.0579474339624304E-014
   7.1666666666666656E-005    -1.0467438683403954E-013
   7.1866666666666661E-005    -1.3471202506363383E-013
   7.2066666666666666E-005    -1.5843135993658802E-013
   7.2266666666666657E-005    -1.7381820809070359E-013
   7.2466666666666662E-005    -1.7925248687721690E-013
   7.2666666666666667E-005    -1.7363950446762366E-013
   7.2866666666666658E-005    -1.5651569667055054E-013
   7.3066666666666663E-005    -1.2812049598326380E-013
   7.3266666666666654E-005    -8.9427610824345527E-014
   7.3466666666666659E-005    -4.2131249389839448E-014
   7.3666666666666664E-005     1.1414329700062779E-014
   7.3866666666666655E-005     6.8301009921618860E-014
   7.4066666666666660E-005     1.2521454955793238E-013
   7.4266666666666665E-005     1.7861688690612443E-013
   7.4466666666666656E-005     2.2495356001139138E-013
   7.4666666666666661E-005     2.6087446547591597E-013
   7.4866666666666666E-005     2.8345503570205433E-013
   7.5066666666666657E-005     2.9040379584573117E-013
   7.5266666666666662E-005     2.8024270729530565E-013
   7.5466666666666653E-005     2.5244758540543533E-013