  -3.3333333333333335E-005     0.0000000000000000     
  -3.3133333333333337E-005     0.0000000000000000     
  -3.2933333333333332E-005     0.0000000000000000     
  -3.2733333333333334E-005     0.0000000000000000     
  -3.2533333333333336E-005     0.0000000000000000     
  -3.2333333333333338E-005     0.0000000000000000     
  -3.2133333333333333E-005     0.0000000000000000     
  -3.1933333333333335E-005     0.0000000000000000     
  -3.1733333333333337E-005     0.0000000000000000     
  -3.1533333333333332E-005     0.0000000000000000     
  -3.1333333333333334E-005     0.0000000000000000     
  -3.1133333333333336E-005     0.0000000000000000     
  -3.0933333333333338E-005     0.0000000000000000     
  -3.0733333333333333E-005     0.0000000000000000     
  -3.0533333333333335E-005     0.0000000000000000     
  -3.0333333333333337E-005     0.0000000000000000     
  -3.0133333333333335E-005     0.0000000000000000     
  -2.9933333333333334E-005     0.0000000000000000     
  -2.9733333333333336E-005     0.0000000000000000     
  -2.9533333333333334E-005     0.0000000000000000     
  -2.9333333333333336E-005     0.0000000000000000     
  -2.9133333333333334E-005     0.0000000000000000     
  -2.8933333333333336E-005     0.0000000000000000     
  -2.8733333333333335E-005     0.0000000000000000     
  -2.8533333333333333E-005     0.0000000000000000     
  -2.8333333333333335E-005     0.0000000000000000     
  -2.8133333333333337E-005     0.0000000000000000     
  -2.7933333333333336E-005     0.0000000000000000     
  -2.7733333333333334E-005     0.0000000000000000     
  -2.7533333333333336E-005     0.0000000000000000     
  -2.7333333333333335E-005     0.0000000000000000     
  -2.7133333333333333E-005     0.0000000000000000     
  -2.6933333333333335E-005     0.0000000000000000     
  -2.6733333333333337E-005     0.0000000000000000     
  -2.6533333333333336E-005     0.0000000000000000     
  -2.6333333333333334E-005     0.0000000000000000     
  -2.6133333333333336E-005     0.0000000000000000     
  -2.5933333333333335E-005     0.0000000000000000     
  -2.5733333333333333E-005     0.0000000000000000     
  -2.5533333333333335E-005     0.0000000000000000     
  -2.5333333333333337E-005     0.0000000000000000     
  -2.5133333333333336E-005     0.0000000000000000     
  -2.4933333333333334E-005     0.0000000000000000     
  -2.4733333333333336E-005     0.0000000000000000     
  -2.4533333333333334E-005     0.0000000000000000     
  -2.4333333333333333E-005     0.0000000000000000     
  -2.4133333333333335E-005     0.0000000000000000     
  -2.3933333333333337E-005     0.0000000000000000     
  -2.3733333333333335E-005     0.0000000000000000     
  -2.3533333333333334E-005     0.0000000000000000     
  -2.3333333333333336E-005     0.0000000000000000     
  -2.3133333333333338E-005     0.0000000000000000     
  -2.2933333333333336E-005     0.0000000000000000     
  -2.2733333333333335E-005     0.0000000000000000     
  -2.2533333333333337E-005     0.0000000000000000     
  -2.2333333333333335E-005     0.0000000000000000     
  -2.2133333333333334E-005     0.0000000000000000     
  -2.1933333333333336E-005     0.0000000000000000     
  -2.1733333333333338E-005     0.0000000000000000     
  -2.1533333333333336E-005     0.0000000000000000     
  -2.1333333333333335E-005     0.0000000000000000     
  -2.1133333333333337E-005     0.0000000000000000     
  -2.0933333333333335E-005     0.0000000000000000     
  -2.0733333333333334E-005     0.0000000000000000     
  -2.0533333333333336E-005     0.0000000000000000     
  -2.0333333333333337E-005     0.0000000000000000     
  -2.0133333333333336E-005     0.0000000000000000     
  -1.9933333333333334E-005     0.0000000000000000     
  -1.9733333333333336E-005     0.0000000000000000     
  -1.9533333333333335E-005     0.0000000000000000     
  -1.9333333333333333E-005     0.0000000000000000     
  -1.9133333333333335E-005     0.0000000000000000     
  -1.8933333333333337E-005     0.0000000000000000     
  -1.8733333333333336E-005     0.0000000000000000     
  -1.8533333333333334E-005     0.0000000000000000     
  -1.8333333333333336E-005     0.0000000000000000     
  -1.8133333333333335E-005     0.0000000000000000     
  -1.7933333333333337E-005     0.0000000000000000     
  -1.7733333333333335E-005     0.0000000000000000     
  -1.7533333333333337E-005     0.0000000000000000     
  -1.7333333333333336E-005     0.0000000000000000     
  -1.7133333333333334E-005     0.0000000000000000     
  -1.6933333333333336E-005     0.0000000000000000     
  -1.6733333333333335E-005     0.0000000000000000     
  -1.6533333333333337E-005     0.0000000000000000     
  -1.6333333333333335E-005     0.0000000000000000     
  -1.6133333333333337E-005     0.0000000000000000     
  -1.5933333333333336E-005     0.0000000000000000     
  -1.5733333333333334E-005     0.0000000000000000     
  -1.5533333333333336E-005     0.0000000000000000     
  -1.5333333333333334E-005     0.0000000000000000     
  -1.5133333333333336E-005     0.0000000000000000     
  -1.4933333333333335E-005     0.0000000000000000     
  -1.4733333333333337E-005     0.0000000000000000     
  -1.4533333333333335E-005     0.0000000000000000     
  -1.4333333333333337E-005     0.0000000000000000     
  -1.4133333333333336E-005     0.0000000000000000     
  -1.3933333333333334E-005     0.0000000000000000     
  -1.3733333333333336E-005     0.0000000000000000     
  -1.3533333333333335E-005     0.0000000000000000     
  -1.3333333333333337E-005     0.0000000000000000     
  -1.3133333333333335E-005     0.0000000000000000     
  -1.2933333333333337E-005     0.0000000000000000     
  -1.2733333333333336E-005     0.0000000000000000     
  -1.2533333333333338E-005     0.0000000000000000     
  -1.2333333333333336E-005     0.0000000000000000     
  -1.2133333333333335E-005     0.0000000000000000     
  -1.1933333333333337E-005     0.0000000000000000     
  -1.1733333333333335E-005     0.0000000000000000     
  -1.1533333333333337E-005     0.0000000000000000     
  -1.1333333333333336E-005     0.0000000000000000     
  -1.1133333333333337E-005     0.0000000000000000     
  -1.0933333333333336E-005     0.0000000000000000     
  -1.0733333333333334E-005     0.0000000000000000     
  -1.0533333333333336E-005     0.0000000000000000     
  -1.0333333333333335E-005     0.0000000000000000     
  -1.0133333333333337E-005     0.0000000000000000     
  -9.9333333333333354E-006     0.0000000000000000     
  -9.7333333333333373E-006     0.0000000000000000     
  -9.5333333333333358E-006     0.0000000000000000     
  -9.3333333333333343E-006     0.0000000000000000     
  -9.1333333333333362E-006     0.0000000000000000     
  -8.9333333333333348E-006     0.0000000000000000     
  -8.7333333333333367E-006     0.0000000000000000     
  -8.5333333333333352E-006     0.0000000000000000     
  -8.3333333333333371E-006     0.0000000000000000     
  -8.1333333333333356E-006     0.0000000000000000     
  -7.9333333333333376E-006     0.0000000000000000     
  -7.7333333333333361E-006     0.0000000000000000     
  -7.5333333333333346E-006     0.0000000000000000     
  -7.3333333333333365E-006     0.0000000000000000     
  -7.1333333333333351E-006     0.0000000000000000     
  -6.9333333333333370E-006     0.0000000000000000     
  -6.7333333333333355E-006     0.0000000000000000     
  -6.5333333333333374E-006     0.0000000000000000     
  -6.3333333333333359E-006     0.0000000000000000     
  -6.1333333333333379E-006     0.0000000000000000     
  -5.9333333333333364E-006     0.0000000000000000     
  -5.7333333333333349E-006     0.0000000000000000     
  -5.5333333333333368E-006     0.0000000000000000     
  -5.3333333333333354E-006     0.0000000000000000     
  -5.1333333333333373E-006     0.0000000000000000     
  -4.9333333333333358E-006     0.0000000000000000     
  -4.7333333333333377E-006     0.0000000000000000     
  -4.5333333333333362E-006     0.0000000000000000     
  -4.3333333333333348E-006     0.0000000000000000     
  -4.1333333333333367E-006     0.0000000000000000     
  -3.9333333333333352E-006     0.0000000000000000     
  -3.7333333333333371E-006     0.0000000000000000     
  -3.5333333333333356E-006     0.0000000000000000     
  -3.3333333333333376E-006     0.0000000000000000     
  -3.1333333333333361E-006     0.0000000000000000     
  -2.9333333333333346E-006     0.0000000000000000     
  -2.7333333333333365E-006     0.0000000000000000     
  -2.5333333333333384E-006     0.0000000000000000     
  -2.3333333333333336E-006     0.0000000000000000     
  -2.1333333333333355E-006     0.0000000000000000     
  -1.9333333333333374E-006     0.0000000000000000     
  -1.7333333333333393E-006     0.0000000000000000     
  -1.5333333333333345E-006     0.0000000000000000     
  -1.3333333333333364E-006     0.0000000000000000     
  -1.1333333333333383E-006     0.0000000000000000     
  -9.3333333333333343E-007     0.0000000000000000     
  -7.3333333333333535E-007     0.0000000000000000     
  -5.3333333333333726E-007     0.0000000000000000     
  -3.3333333333333918E-007     0.0000000000000000     
  -1.3333333333333432E-007     0.0000000000000000     
   6.6666666666663770E-008     0.0000000000000000     
   2.6666666666666185E-007     0.0000000000000000     
   4.6666666666666672E-007     0.0000000000000000     
   6.6666666666666480E-007     0.0000000000000000     
   8.6666666666666289E-007     0.0000000000000000     
   1.0666666666666610E-006     0.0000000000000000     
   1.2666666666666658E-006     0.0000000000000000     
   1.4666666666666639E-006     0.0000000000000000     
   1.6666666666666620E-006     0.0000000000000000     
   1.8666666666666669E-006     0.0000000000000000     
   2.0666666666666649E-006     0.0000000000000000     
   2.2666666666666630E-006     0.0000000000000000     
   2.4666666666666611E-006     0.0000000000000000     
   2.6666666666666660E-006     0.0000000000000000     
   2.8666666666666641E-006     0.0000000000000000     
   3.0666666666666622E-006     0.0000000000000000     
   3.2666666666666602E-006     0.0000000000000000     
   3.4666666666666651E-006     0.0000000000000000     
   3.6666666666666632E-006     0.0000000000000000     
   3.8666666666666613E-006     0.0000000000000000     
   4.0666666666666661E-006     0.0000000000000000     
   4.2666666666666642E-006     0.0000000000000000     
   4.4666666666666623E-006    -1.4805153328318120E-035
   4.6666666666666604E-006    -3.4483006247283097E-035
   4.8666666666666652E-006    -7.2324327534412244E-035
   5.0666666666666633E-006    -1.1595210585924175E-034
   5.2666666666666614E-006    -1.6066944920908221E-034
   5.4666666666666663E-006    -1.9152407518119265E-034
   5.6666666666666644E-006    -1.9316836678102744E-034
   5.8666666666666624E-006    -1.2611609123202359E-034
   6.0666666666666605E-006     1.5953361057344465E-035
   6.2666666666666654E-006     2.3995901125100475E-034
   6.4666666666666635E-006     5.4182538657031720E-034
   6.6666666666666616E-006     8.5041552069971101E-034
   6.8666666666666664E-006     1.0962030324265009E-033
   7.0666666666666645E-006     1.1921736973054942E-033
   7.2666666666666626E-006     1.0404133358525059E-033
   7.4666666666666607E-006     5.3732186567422547E-034
   7.6666666666666655E-006    -3.4234470696087023E-034
   7.8666666666666636E-006    -1.5776160908882145E-033
   8.0666666666666617E-006    -2.9841687337150002E-033
   8.2666666666666598E-006    -4.3078947588859013E-033
   8.4666666666666647E-006    -5.1887044309005496E-033
   8.6666666666666627E-006    -5.1881967642777882E-033
   8.8666666666666608E-006    -3.9446350457291515E-033
   9.0666666666666657E-006    -1.2429752570701718E-033
   9.2666666666666638E-006     2.8475511272235031E-033
   9.4666666666666619E-006     7.8816345209657429E-033
   9.6666666666666599E-006     1.3005672436233666E-032
   9.8666666666666648E-006     1.7024029344858607E-032
   1.0066666666666663E-005     1.8586982796759244E-032
   1.0266666666666661E-005     1.6486424350349726E-032
   1.0466666666666666E-005     1.0024485050065939E-032
   1.0666666666666664E-005    -6.2627707924846552E-034
   1.0866666666666662E-005    -1.4181801554005398E-032
   1.1066666666666660E-005    -2.8232174023381232E-032
   1.1266666666666665E-005    -3.9555393721377606E-032
   1.1466666666666663E-005    -4.4772931191993903E-032
   1.1666666666666661E-005    -4.1282911974289548E-032
   1.1866666666666666E-005    -2.8280207661291708E-032
   1.2066666666666664E-005    -7.5748209445095255E-033
   1.2266666666666662E-005     1.6142179360343481E-032
   1.2466666666666660E-005     3.5887983589926536E-032
   1.2666666666666665E-005     4.3997492833586965E-032
   1.2866666666666663E-005     3.4640266866189727E-032
   1.3066666666666661E-005     6.7883285311010420E-033
   1.3266666666666666E-005    -3.3177067334267808E-032
   1.3466666666666664E-005    -7.0280497389265204E-032
   1.3666666666666662E-005    -8.2255493439962012E-032
   1.3866666666666660E-005    -4.4080606161661854E-032
   1.4066666666666665E-005     6.4236840121306266E-032
   1.4266666666666663E-005     2.4763227305156893E-031
   1.4466666666666661E-005     4.8592947526551774E-031
   1.4666666666666666E-005     7.2698565676039453E-031
   1.4866666666666664E-005     8.8673472778008098E-031
   1.5066666666666662E-005     8.5937025372796685E-031
   1.5266666666666661E-005     5.3925775132108020E-031
   1.5466666666666665E-005    -1.4667188444588463E-031
   1.5666666666666663E-005    -1.2009589438848286E-030
   1.5866666666666662E-005    -2.5207434395191387E-030
   1.6066666666666660E-005    -3.8774002777127538E-030
   1.6266666666666665E-005    -4.9226551206786236E-030
   1.6466666666666663E-005    -5.2304995998030404E-030
   1.6666666666666661E-005    -4.3778708531968134E-030
   1.6866666666666666E-005    -2.0574307106623119E-030
   1.7066666666666664E-005     1.7956185903160958E-030
   1.7266666666666662E-005     6.8913061032775679E-030
   1.7466666666666660E-005     1.2522372424281503E-029
   1.7666666666666665E-005     1.7585658799036005E-029
   1.7866666666666663E-005     2.0711060922053150E-029
   1.8066666666666661E-005     2.0501021710657262E-029
   1.8266666666666666E-005     1.5855284471009757E-029
   1.8466666666666664E-005     6.3249352456163534E-030
   1.8666666666666662E-005    -7.5854037320708824E-030
   1.8866666666666660E-005    -2.4259306982891588E-029
   1.9066666666666665E-005    -4.1035572657940091E-029
   1.9266666666666663E-005    -5.4545489735330453E-029
   1.9466666666666661E-005    -6.1306093656175120E-029
   1.9666666666666666E-005    -5.8482517857364374E-029
   1.9866666666666664E-005    -4.4663621431583537E-029
   2.0066666666666662E-005    -2.0450693249165224E-029
   2.0266666666666660E-005     1.1340638361365954E-029
   2.0466666666666665E-005     4.6006590437397985E-029
   2.0666666666666663E-005     7.7834231845911939E-029
   2.0866666666666661E-005     1.0140065694328761E-028
   2.1066666666666659E-005     1.1299737928804799E-028
   2.1266666666666664E-005     1.1176521745787765E-028
   2.1466666666666662E-005     1.0010052784167362E-028
   2.1666666666666660E-005     8.3001182904555854E-029
   2.1866666666666665E-005     6.6271237349302633E-029
   2.2066666666666663E-005     5.3865973502702027E-029
   2.2266666666666661E-005     4.5055358591537439E-029
   2.2466666666666659E-005     3.2399410888550529E-029
   2.2666666666666664E-005     1.6325000352694383E-030
   2.2866666666666662E-005    -6.5666645810041946E-029
   2.3066666666666660E-005    -1.8633608138364694E-028
   2.3266666666666665E-005    -3.6745898337145360E-028
   2.3466666666666663E-005    -5.9747243551775661E-028
   2.3666666666666661E-005    -8.3922657327216295E-028
   2.3866666666666660E-005    -1.0281564489566620E-027
   2.4066666666666664E-005    -1.0784281316265271E-027
   2.4266666666666662E-005    -8.9861551200225994E-028
   2.4466666666666661E-005    -4.1617959428648208E-028
   2.4666666666666665E-005     3.9293292170812330E-028
   2.4866666666666663E-005     1.4762296357151912E-027
   2.5066666666666662E-005     2.6869397840894694E-027
   2.5266666666666660E-005     3.7857373211798136E-027
   2.5466666666666665E-005     4.4688388649927114E-027
   2.5666666666666663E-005     4.4243787722265320E-027
   2.5866666666666661E-005     3.4115745849320612E-027
   2.6066666666666666E-005     1.3487276807929119E-027
   2.6266666666666664E-005    -1.6113447917076332E-027
   2.6466666666666662E-005    -5.0438271758194650E-027
   2.6666666666666660E-005    -8.2758565565000373E-027
   2.6866666666666665E-005    -1.0486148516432093E-026
   2.7066666666666663E-005    -1.0878044445235785E-026
   2.7266666666666661E-005    -8.9021674336708109E-027
   2.7466666666666666E-005    -4.4827302124955876E-027
   2.7666666666666664E-005     1.8151858910970588E-027
   2.7866666666666662E-005     8.7446556383550897E-027
   2.8066666666666667E-005     1.4516550585143017E-026
   2.8266666666666658E-005     1.7141320387662694E-026
   2.8466666666666663E-005     1.4944210262642002E-026
   2.8666666666666668E-005     7.1660617668342476E-027
   2.8866666666666659E-005    -5.4930075797030224E-027
   2.9066666666666664E-005    -2.0562785778417150E-026
   2.9266666666666669E-005    -3.3895951020347363E-026
   2.9466666666666660E-005    -4.0281043572500720E-026
   2.9666666666666665E-005    -3.4585677377982964E-026
   2.9866666666666656E-005    -1.3295144303340098E-026
   3.0066666666666661E-005     2.3845830732208607E-026
   3.0266666666666666E-005     7.2510374937661056E-026
   3.0466666666666657E-005     1.2326603686920281E-025
   3.0666666666666662E-005     1.6227663844277256E-025
   3.0866666666666667E-005     1.7346687690236549E-025
   3.1066666666666658E-005     1.4207050869740868E-025
   3.1266666666666663E-005     5.9082834506224002E-026
   3.1466666666666668E-005    -7.4265775341052469E-026
   3.1666666666666659E-005    -2.4319832290103834E-025
   3.1866666666666664E-005    -4.1850633952643145E-025
   3.2066666666666656E-005    -5.5912858588351587E-025
   3.2266666666666660E-005    -6.1865336738593830E-025
   3.2466666666666665E-005    -5.5532405764905465E-025
   3.2666666666666657E-005    -3.4407363998523905E-025
   3.2866666666666661E-005     1.1878679066397662E-026
   3.3066666666666666E-005     4.7299956896012797E-025
   3.3266666666666658E-005     9.6216161596926348E-025
   3.3466666666666662E-005     1.3725264672195549E-024
   3.3666666666666667E-005     1.5853792832490040E-024
   3.3866666666666659E-005     1.4963686560464569E-024
   3.4066666666666664E-005     1.0459651695516730E-024
   3.4266666666666668E-005     2.4759055250988920E-025
   3.4466666666666660E-005    -7.9451782677235168E-025
   3.4666666666666665E-005    -1.8853947212029068E-024
   3.4866666666666656E-005    -2.7627750891053524E-024
   3.5066666666666661E-005    -3.1448770262738381E-024
   3.5266666666666666E-005    -2.7976090173124230E-024
   3.5466666666666657E-005    -1.6098141511806117E-024
   3.5666666666666662E-005     3.4031151302443347E-025
   3.5866666666666667E-005     2.7472913272576744E-024
   3.6066666666666658E-005     5.0872653701571525E-024
   3.6266666666666663E-005     6.6856624360641136E-024
   3.6466666666666668E-005     6.8443844056382021E-024
   3.6666666666666659E-005     5.0145193784908391E-024
   3.6866666666666664E-005     9.8518195769019674E-025
   3.7066666666666669E-005    -4.9535988062242412E-024
   3.7266666666666660E-005    -1.1921828457525353E-023
   3.7466666666666665E-005    -1.8478063273730760E-023
   3.7666666666666656E-005    -2.2793148202507799E-023
   3.7866666666666661E-005    -2.2969726827532471E-023
   3.8066666666666666E-005    -1.7473360558510417E-023
   3.8266666666666657E-005    -5.6052353848297950E-024
   3.8466666666666662E-005     1.2082352974267871E-023
   3.8666666666666667E-005     3.3539446904648104E-023
   3.8866666666666658E-005     5.5242679636953587E-023
   3.9066666666666663E-005     7.2555923519809485E-023
   3.9266666666666668E-005     8.0432687036666804E-023
   3.9466666666666659E-005     7.4389223641768632E-023
   3.9666666666666664E-005     5.1599524339138459E-023
   3.9866666666666655E-005     1.1901320440572322E-023
   4.0066666666666660E-005    -4.1525789512127864E-023
   4.0266666666666665E-005    -1.0202851793444826E-022
   4.0466666666666656E-005    -1.6003891290192614E-022
   4.0666666666666661E-005    -2.0434640267070606E-022
   4.0866666666666666E-005    -2.2395256228245184E-022
   4.1066666666666657E-005    -2.1022605436546966E-022
   4.1266666666666662E-005    -1.5895725207223606E-022
   4.1466666666666667E-005    -7.1863335199461645E-023
   4.1666666666666658E-005     4.2858977063725857E-023
   4.1866666666666663E-005     1.7118969530005309E-022
   4.2066666666666668E-005     2.9517599875914716E-022
   4.2266666666666660E-005     3.9580559494048717E-022
   4.2466666666666664E-005     4.5635080825571915E-022
   4.2666666666666656E-005     4.6548967980117042E-022
   4.2866666666666661E-005     4.1947177550680306E-022
   4.3066666666666665E-005     3.2273372483422694E-022
   4.3266666666666657E-005     1.8668095448177433E-022
   4.3466666666666662E-005     2.6792944360129725E-023
   4.3666666666666666E-005    -1.4131485124351126E-022
   4.3866666666666658E-005    -3.0584407401392575E-022
   4.4066666666666663E-005    -4.6156324770773405E-022
   4.4266666666666667E-005    -6.1024800355928003E-022
   4.4466666666666659E-005    -7.5815510664134637E-022
   4.4666666666666664E-005    -9.1062053833459284E-022
   4.4866666666666655E-005    -1.0647802665474113E-021
   4.5066666666666660E-005    -1.2022774349064363E-021
   4.5266666666666665E-005    -1.2843977289221988E-021
   4.5466666666666656E-005    -1.2521278905356315E-021
   4.5666666666666661E-005    -1.0330232761016590E-021
   4.5866666666666666E-005    -5.5547561123958300E-022
   4.6066666666666657E-005     2.3084983192317606E-022
   4.6266666666666662E-005     1.3316441610141467E-021
   4.6466666666666667E-005     2.6866335561130419E-021
   4.6666666666666658E-005     4.1562566333747012E-021
   4.6866666666666663E-005     5.5220558210122762E-021
   4.7066666666666668E-005     6.5048255524948338E-021
   4.7266666666666659E-005     6.8015055114143412E-021
   4.7466666666666664E-005     6.1377992946945899E-021
   4.7666666666666655E-005     4.3292472413233887E-021
   4.7866666666666660E-005     1.3399565587664160E-021
   4.8066666666666665E-005    -2.6736529193373898E-021
   4.8266666666666656E-005    -7.3461045861717755E-021
   4.8466666666666661E-005    -1.2121749457802852E-020
   4.8666666666666666E-005    -1.6311982292500099E-020
   4.8866666666666657E-005    -1.9185947013807435E-020
   4.9066666666666662E-005    -2.0082247290709791E-020
   4.9266666666666667E-005    -1.8523160470063652E-020
   4.9466666666666658E-005    -1.4310058191692588E-020
   4.9666666666666663E-005    -7.5805626300101090E-021
   4.9866666666666655E-005     1.1857426074104163E-021
   5.0066666666666659E-005     1.1215985879263720E-020
   5.0266666666666664E-005     2.1538104555848726E-020
   5.0466666666666656E-005     3.1100608089407228E-020
   5.0666666666666660E-005     3.8891576709799844E-020
   5.0866666666666665E-005     4.4030539662862098E-020
   5.1066666666666657E-005     4.5814532368417430E-020
   5.1266666666666661E-005     4.3714624523526465E-020
   5.1466666666666666E-005     3.7337637149762287E-020
   5.1666666666666658E-005     2.6385647901699427E-020
   5.1866666666666662E-005     1.0656613067960405E-020
   5.2066666666666667E-005    -9.8721615039245692E-021
   5.2266666666666659E-005    -3.4853180792913662E-020
   5.2466666666666664E-005    -6.3279038979319588E-020
   5.2666666666666655E-005    -9.3145991195634938E-020
   5.2866666666666660E-005    -1.2116828540951729E-019
   5.3066666666666665E-005    -1.4267472284195458E-019
   5.3266666666666656E-005    -1.5182741169636848E-019
   5.3466666666666661E-005    -1.4227558234700361E-019
   5.3666666666666666E-005    -1.0828564530264572E-019
   5.3866666666666657E-005    -4.6280710035902149E-020
   5.4066666666666662E-005     4.3412412794260509E-020
   5.4266666666666667E-005     1.5494342691324988E-019
   5.4466666666666658E-005     2.7588114865171508E-019
   5.4666666666666663E-005     3.8718507261199023E-019
   5.4866666666666668E-005     4.6460620526662726E-019
   5.5066666666666659E-005     4.8173613347562305E-019
   5.5266666666666664E-005     4.1463599181775158E-019
   5.5466666666666655E-005     2.4760581471857393E-019
   5.5666666666666660E-005    -2.0728611391237555E-020
   5.5866666666666665E-005    -3.7217034862686909E-019
   5.6066666666666656E-005    -7.6589454247503243E-019
   5.6266666666666661E-005    -1.1388963885632763E-018
   5.6466666666666666E-005    -1.4109544376707420E-018
   5.6666666666666657E-005    -1.4945231507884790E-018
   5.6866666666666662E-005    -1.3091325367709505E-018
   5.7066666666666667E-005    -7.9888571062852082E-019
   5.7266666666666658E-005     4.9325083656918212E-020
   5.7466666666666663E-005     1.1900421032107723E-018
   5.7666666666666654E-005     2.5094587697424414E-018
   5.7866666666666659E-005     3.8250200508365775E-018
   5.8066666666666664E-005     4.8969985618200796E-018
   5.8266666666666655E-005     5.4532001823747170E-018
   5.8466666666666660E-005     5.2259819399125258E-018
   5.8666666666666665E-005     3.9985058814782428E-018
   5.8866666666666656E-005     1.6549315661384107E-018
   5.9066666666666661E-005    -1.7726035917432136E-018
   5.9266666666666666E-005    -6.0683764718819350E-018
   5.9466666666666657E-005    -1.0816997856964090E-017
   5.9666666666666662E-005    -1.5413705041009044E-017
   5.9866666666666667E-005    -1.9105314507520925E-017
   6.0066666666666659E-005    -2.1062504900521419E-017
   6.0266666666666663E-005    -2.0479762776422711E-017
   6.0466666666666655E-005    -1.6694870497872000E-017
   6.0666666666666660E-005    -9.3157303924487366E-018
   6.0866666666666664E-005     1.6606310473540542E-018
   6.1066666666666656E-005     1.5753555504398906E-017
   6.1266666666666661E-005     3.1944974102969081E-017
   6.1466666666666665E-005     4.8680293732794924E-017
   6.1666666666666657E-005     6.3933715986509568E-017
   6.1866666666666662E-005     7.5342184377396026E-017
   6.2066666666666666E-005     8.0405701013967930E-017
   6.2266666666666658E-005     7.6744923877608350E-017
   6.2466666666666663E-005     6.2400467237971077E-017
   6.2666666666666668E-005     3.6152454758499658E-017
   6.2866666666666659E-005    -2.1657819756340626E-018
   6.3066666666666664E-005    -5.1390005070620635E-017
   6.3266666666666655E-005    -1.0881538458822418E-016
   6.3466666666666660E-005    -1.7008882155031420E-016
   6.3666666666666665E-005    -2.2923662933126956E-016
   6.3866666666666656E-005    -2.7885941927145231E-016
   6.4066666666666661E-005    -3.1052174906783447E-016
   6.4266666666666666E-005    -3.1535603079561078E-016
   6.4466666666666657E-005    -2.8488772628728156E-016
   6.4666666666666662E-005    -2.1207005081728307E-016
   6.4866666666666667E-005    -9.2490240663106228E-017
   6.5066666666666658E-005     7.4323686815326833E-017
   6.5266666666666663E-005     2.8360558310293457E-016
   6.5466666666666654E-005     5.2421619731971448E-016
   6.5666666666666659E-005     7.7786286035297489E-016
   6.5866666666666664E-005     1.0188973086807372E-015
   6.6066666666666655E-005     1.2149295317955889E-015
   6.6266666666666660E-005     1.3284758865618040E-015
   6.6466666666666665E-005     1.3198115865443397E-015
   6.6666666666666656E-005     1.1510945877916631E-015
   6.6866666666666661E-005     7.9168262640390242E-016
   6.7066666666666666E-005     2.2437026623061600E-016
   6.7266666666666657E-005    -5.4795546033681872E-016
   6.7466666666666662E-005    -1.4959815223207886E-015
   6.7666666666666667E-005    -2.5589242266213941E-015
   6.7866666666666658E-005    -3.6419037070475370E-015
   6.8066666666666663E-005    -4.6169309559284874E-015
   6.8266666666666655E-005    -5.3286084617280242E-015
   6.8466666666666659E-005    -5.6053718185621569E-015
   6.8666666666666664E-005    -5.2765993682171893E-015
   6.8866666666666656E-005    -4.1952080745671482E-015
   6.9066666666666660E-005    -2.2644485638272267E-015
   6.9266666666666665E-005     5.3339411694057004E-016
   6.9466666666666657E-005     4.1097200038160871E-015
   6.9666666666666661E-005     8.2479596069662264E-015
   6.9866666666666666E-005     1.2592320442665964E-014
   7.0066666666666658E-005     1.6651774970293139E-014
   7.0266666666666662E-005     1.9823520334472967E-014
   7.0466666666666654E-005     2.1438757954778294E-014
   7.0666666666666659E-005     2.0831374345224758E-014
   7.0866666666666664E-005     1.7427103190430573E-014
   7.1066666666666655E-005     1.0847132721658777E-014
   7.1266666666666660E-005     1.0162769063792876E-015
   7.1466666666666665E-005    -1.1737762454708256E-014
   7.1666666666666656E-005    -2.6610322696437108E-014
   7.1866666666666661E-005    -4.2288421435400167E-014
   7.2066666666666666E-005    -5.6978910251050813E-014
   7.2266666666666657E-005    -6.8509522328178557E-014
   7.2466666666666662E-005    -7.4509890174000865E-014
   7.2666666666666667E-005    -7.2670785133868016E-014
   7.2866666666666658E-005    -6.1068182032487234E-014
   7.3066666666666663E-005    -3.8526375422147027E-014
   7.3266666666666654E-005    -4.9816209913688264E-015
   7.3466666666666659E-005     3.8203151037606575E-014
   7.3666666666666664E-005     8.8028563117233810E-014
   7.3866666666666655E-005     1.3981125827379481E-013
   7.4066666666666660E-005     1.8734924093870287E-013
   7.4266666666666665E-005     2.2333525274368521E-013
   7.4466666666666656E-005     2.4002902530156911E-013
   7.4666666666666661E-005     2.3016695971031509E-013
   7.4866666666666666E-005     1.8805006922299750E-013
   7.5066666666666657E-005     1.1071049269397240E-013
   7.5266666666666662E-005    -9.7846641440503968E-016
   7.5466666666666653E-005    -1.4141285527551756E-013