  -3.3333333333333335E-005     0.0000000000000000     
  -3.3133333333333337E-005     0.0000000000000000     
  -3.2933333333333332E-005     0.0000000000000000     
  -3.2733333333333334E-005     0.0000000000000000     
  -3.2533333333333336E-005     0.0000000000000000     
  -3.2333333333333338E-005     0.0000000000000000     
  -3.2133333333333333E-005     0.0000000000000000     
  -3.1933333333333335E-005     0.0000000000000000     
  -3.1733333333333337E-005     0.0000000000000000     
  -3.1533333333333332E-005     0.0000000000000000     
  -3.1333333333333334E-005     0.0000000000000000     
  -3.1133333333333336E-005     0.0000000000000000     
  -3.0933333333333338E-005     0.0000000000000000     
  -3.0733333333333333E-005     0.0000000000000000     
  -3.0533333333333335E-005     0.0000000000000000     
  -3.0333333333333337E-005     0.0000000000000000     
  -3.0133333333333335E-005     0.0000000000000000     
  -2.9933333333333334E-005     0.0000000000000000     
  -2.9733333333333336E-005     0.0000000000000000     
  -2.9533333333333334E-005     0.0000000000000000     
  -2.9333333333333336E-005     0.0000000000000000     
  -2.9133333333333334E-005     0.0000000000000000     
  -2.8933333333333336E-005     0.0000000000000000     
  -2.8733333333333335E-005     0.0000000000000000     
  -2.8533333333333333E-005     0.0000000000000000     
  -2.8333333333333335E-005     0.0000000000000000     
  -2.8133333333333337E-005     0.0000000000000000     
  -2.7933333333333336E-005     0.0000000000000000     
  -2.7733333333333334E-005     0.0000000000000000     
  -2.7533333333333336E-005     0.0000000000000000     
  -2.7333333333333335E-005     0.0000000000000000     
  -2.7133333333333333E-005     0.0000000000000000     
  -2.6933333333333335E-005     0.0000000000000000     
  -2.6733333333333337E-005     0.0000000000000000     
  -2.6533333333333336E-005     0.0000000000000000     
  -2.6333333333333334E-005     0.0000000000000000     
  -2.6133333333333336E-005     0.0000000000000000     
  -2.5933333333333335E-005     0.0000000000000000     
  -2.5733333333333333E-005     0.0000000000000000     
  -2.5533333333333335E-005     0.0000000000000000     
  -2.5333333333333337E-005     0.0000000000000000     
  -2.5133333333333336E-005     0.0000000000000000     
  -2.4933333333333334E-005     0.0000000000000000     
  -2.4733333333333336E-005     0.0000000000000000     
  -2.4533333333333334E-005     0.0000000000000000     
  -2.4333333333333333E-005     0.0000000000000000     
  -2.4133333333333335E-005     0.0000000000000000     
  -2.3933333333333337E-005     0.0000000000000000     
  -2.3733333333333335E-005     0.0000000000000000     
  -2.3533333333333334E-005     0.0000000000000000     
  -2.3333333333333336E-005     0.0000000000000000     
  -2.3133333333333338E-005     0.0000000000000000     
  -2.2933333333333336E-005     0.0000000000000000     
  -2.2733333333333335E-005     0.0000000000000000     
  -2.2533333333333337E-005     0.0000000000000000     
  -2.2333333333333335E-005     0.0000000000000000     
  -2.2133333333333334E-005     0.0000000000000000     
  -2.1933333333333336E-005     0.0000000000000000     
  -2.1733333333333338E-005     0.0000000000000000     
  -2.1533333333333336E-005     0.0000000000000000     
  -2.1333333333333335E-005     0.0000000000000000     
  -2.1133333333333337E-005     0.0000000000000000     
  -2.0933333333333335E-005     0.0000000000000000     
  -2.0733333333333334E-005     0.0000000000000000     
  -2.0533333333333336E-005     0.0000000000000000     
  -2.0333333333333337E-005     0.0000000000000000     
  -2.0133333333333336E-005     0.0000000000000000     
  -1.9933333333333334E-005     0.0000000000000000     
  -1.9733333333333336E-005     0.0000000000000000     
  -1.9533333333333335E-005     0.0000000000000000     
  -1.9333333333333333E-005     0.0000000000000000     
  -1.9133333333333335E-005     0.0000000000000000     
  -1.8933333333333337E-005     0.0000000000000000     
  -1.8733333333333336E-005     0.0000000000000000     
  -1.8533333333333334E-005     0.0000000000000000     
  -1.8333333333333336E-005     0.0000000000000000     
  -1.8133333333333335E-005     0.0000000000000000     
  -1.7933333333333337E-005     0.0000000000000000     
  -1.7733333333333335E-005     0.0000000000000000     
  -1.7533333333333337E-005     0.0000000000000000     
  -1.7333333333333336E-005     0.0000000000000000     
  -1.7133333333333334E-005     0.0000000000000000     
  -1.6933333333333336E-005     0.0000000000000000     
  -1.6733333333333335E-005     0.0000000000000000     
  -1.6533333333333337E-005     0.0000000000000000     
  -1.6333333333333335E-005     0.0000000000000000     
  -1.6133333333333337E-005     0.0000000000000000     
  -1.5933333333333336E-005     0.0000000000000000     
  -1.5733333333333334E-005     0.0000000000000000     
  -1.5533333333333336E-005     0.0000000000000000     
  -1.5333333333333334E-005     0.0000000000000000     
  -1.5133333333333336E-005     0.0000000000000000     
  -1.4933333333333335E-005     0.0000000000000000     
  -1.4733333333333337E-005     0.0000000000000000     
  -1.4533333333333335E-005     0.0000000000000000     
  -1.4333333333333337E-005     0.0000000000000000     
  -1.4133333333333336E-005     0.0000000000000000     
  -1.3933333333333334E-005     0.0000000000000000     
  -1.3733333333333336E-005     0.0000000000000000     
  -1.3533333333333335E-005     0.0000000000000000     
  -1.3333333333333337E-005     0.0000000000000000     
  -1.3133333333333335E-005     0.0000000000000000     
  -1.2933333333333337E-005     0.0000000000000000     
  -1.2733333333333336E-005     0.0000000000000000     
  -1.2533333333333338E-005     0.0000000000000000     
  -1.2333333333333336E-005     0.0000000000000000     
  -1.2133333333333335E-005     0.0000000000000000     
  -1.1933333333333337E-005     0.0000000000000000     
  -1.1733333333333335E-005     0.0000000000000000     
  -1.1533333333333337E-005     0.0000000000000000     
  -1.1333333333333336E-005     0.0000000000000000     
  -1.1133333333333337E-005     0.0000000000000000     
  -1.0933333333333336E-005     0.0000000000000000     
  -1.0733333333333334E-005     0.0000000000000000     
  -1.0533333333333336E-005     0.0000000000000000     
  -1.0333333333333335E-005     0.0000000000000000     
  -1.0133333333333337E-005     0.0000000000000000     
  -9.9333333333333354E-006     0.0000000000000000     
  -9.7333333333333373E-006     0.0000000000000000     
  -9.5333333333333358E-006     0.0000000000000000     
  -9.3333333333333343E-006     0.0000000000000000     
  -9.1333333333333362E-006     0.0000000000000000     
  -8.9333333333333348E-006     0.0000000000000000     
  -8.7333333333333367E-006     0.0000000000000000     
  -8.5333333333333352E-006     0.0000000000000000     
  -8.3333333333333371E-006     0.0000000000000000     
  -8.1333333333333356E-006     0.0000000000000000     
  -7.9333333333333376E-006     0.0000000000000000     
  -7.7333333333333361E-006     0.0000000000000000     
  -7.5333333333333346E-006     0.0000000000000000     
  -7.3333333333333365E-006     0.0000000000000000     
  -7.1333333333333351E-006     0.0000000000000000     
  -6.9333333333333370E-006     0.0000000000000000     
  -6.7333333333333355E-006     0.0000000000000000     
  -6.5333333333333374E-006     0.0000000000000000     
  -6.3333333333333359E-006     0.0000000000000000     
  -6.1333333333333379E-006     0.0000000000000000     
  -5.9333333333333364E-006     0.0000000000000000     
  -5.7333333333333349E-006     0.0000000000000000     
  -5.5333333333333368E-006     0.0000000000000000     
  -5.3333333333333354E-006     0.0000000000000000     
  -5.1333333333333373E-006     0.0000000000000000     
  -4.9333333333333358E-006     0.0000000000000000     
  -4.7333333333333377E-006     0.0000000000000000     
  -4.5333333333333362E-006     0.0000000000000000     
  -4.3333333333333348E-006     0.0000000000000000     
  -4.1333333333333367E-006     0.0000000000000000     
  -3.9333333333333352E-006     0.0000000000000000     
  -3.7333333333333371E-006     0.0000000000000000     
  -3.5333333333333356E-006     0.0000000000000000     
  -3.3333333333333376E-006     0.0000000000000000     
  -3.1333333333333361E-006     0.0000000000000000     
  -2.9333333333333346E-006     0.0000000000000000     
  -2.7333333333333365E-006     0.0000000000000000     
  -2.5333333333333384E-006     0.0000000000000000     
  -2.3333333333333336E-006     0.0000000000000000     
  -2.1333333333333355E-006     0.0000000000000000     
  -1.9333333333333374E-006     0.0000000000000000     
  -1.7333333333333393E-006     0.0000000000000000     
  -1.5333333333333345E-006     0.0000000000000000     
  -1.3333333333333364E-006     0.0000000000000000     
  -1.1333333333333383E-006     0.0000000000000000     
  -9.3333333333333343E-007     0.0000000000000000     
  -7.3333333333333535E-007     0.0000000000000000     
  -5.3333333333333726E-007     0.0000000000000000     
  -3.3333333333333918E-007     0.0000000000000000     
  -1.3333333333333432E-007     0.0000000000000000     
   6.6666666666663770E-008     0.0000000000000000     
   2.6666666666666185E-007     0.0000000000000000     
   4.6666666666666672E-007     0.0000000000000000     
   6.6666666666666480E-007     0.0000000000000000     
   8.6666666666666289E-007     0.0000000000000000     
   1.0666666666666610E-006     0.0000000000000000     
   1.2666666666666658E-006     0.0000000000000000     
   1.4666666666666639E-006     0.0000000000000000     
   1.6666666666666620E-006     0.0000000000000000     
   1.8666666666666669E-006     0.0000000000000000     
   2.0666666666666649E-006     0.0000000000000000     
   2.2666666666666630E-006     0.0000000000000000     
   2.4666666666666611E-006     0.0000000000000000     
   2.6666666666666660E-006     0.0000000000000000     
   2.8666666666666641E-006     0.0000000000000000     
   3.0666666666666622E-006     0.0000000000000000     
   3.2666666666666602E-006     0.0000000000000000     
   3.4666666666666651E-006     0.0000000000000000     
   3.6666666666666632E-006     0.0000000000000000     
   3.8666666666666613E-006     0.0000000000000000     
   4.0666666666666661E-006     0.0000000000000000     
   4.2666666666666642E-006     0.0000000000000000     
   4.4666666666666623E-006     2.7177073528463675E-035
   4.6666666666666604E-006     6.3728134793165595E-035
   4.8666666666666652E-006     1.1332090409994510E-034
   5.0666666666666633E-006     1.6203045126214364E-034
   5.2666666666666614E-006     1.8678511103182587E-034
   5.4666666666666663E-006     1.7259184326511217E-034
   5.6666666666666644E-006     1.0693425043738568E-034
   5.8666666666666624E-006    -4.7264828444811335E-035
   6.0666666666666605E-006    -2.7999363969287520E-034
   6.2666666666666654E-006    -5.6530597806348855E-034
   6.4666666666666635E-006    -8.8888063459449331E-034
   6.6666666666666616E-006    -1.1269095162638715E-033
   6.8666666666666664E-006    -1.1946032971918500E-033
   7.0666666666666645E-006    -9.8830486514200397E-034
   7.2666666666666626E-006    -4.2622791495892655E-034
   7.4666666666666607E-006     5.3323784932458344E-034
   7.6666666666666655E-006     1.8259692108711702E-033
   7.8666666666666636E-006     3.3033235314869131E-033
   8.0666666666666617E-006     4.6246486094462597E-033
   8.2666666666666598E-006     5.4106072749510730E-033
   8.4666666666666647E-006     5.2245441516311672E-033
   8.6666666666666627E-006     3.6438352249033439E-033
   8.8666666666666608E-006     4.8712435388552707E-034
   9.0666666666666657E-006    -4.1245848637408121E-033
   9.2666666666666638E-006    -9.6452441238677754E-033
   9.4666666666666619E-006    -1.5077418046736591E-032
   9.6666666666666599E-006    -1.9054851588905592E-032
   9.8666666666666648E-006    -2.0036449615927682E-032
   1.0066666666666663E-005    -1.6717284094011531E-032
   1.0266666666666661E-005    -8.3953483274781298E-033
   1.0466666666666666E-005     4.6108391222179903E-033
   1.0666666666666664E-005     2.0657313405937367E-032
   1.0866666666666662E-005     3.6815921769201527E-032
   1.1066666666666660E-005     4.9153425584012543E-032
   1.1266666666666665E-005     5.3605298931748989E-032
   1.1466666666666663E-005     4.7025954194440948E-032
   1.1666666666666661E-005     2.8424808160122235E-032
   1.1866666666666666E-005    -5.0219948348353490E-035
   1.2066666666666664E-005    -3.2682366414196002E-032
   1.2266666666666662E-005    -6.0856165388115400E-032
   1.2466666666666660E-005    -7.4821731817551161E-032
   1.2666666666666665E-005    -6.6623099530947264E-032
   1.2866666666666663E-005    -3.3594720477114967E-032
   1.3066666666666661E-005     1.8451158832625544E-032
   1.3266666666666666E-005     7.3535946709262972E-032
   1.3466666666666664E-005     1.0665337827637769E-031
   1.3666666666666662E-005     8.8553662867289238E-032
   1.3866666666666660E-005    -5.5874989709406725E-033
   1.4066666666666665E-005    -1.8498244434342082E-031
   1.4266666666666663E-005    -4.3153088809364458E-031
   1.4466666666666661E-005    -6.9160971850968618E-031
   1.4666666666666666E-005    -8.7547405613649186E-031
   1.4866666666666664E-005    -8.6798982466412845E-031
   1.5066666666666662E-005    -5.5269294645436845E-031
   1.5266666666666661E-005     1.5214564442014966E-031
   1.5466666666666665E-005     1.2509296789360244E-030
   1.5666666666666663E-005     2.6314571398524657E-030
   1.5866666666666662E-005     4.0420078549634849E-030
   1.6066666666666660E-005     5.0985666277650540E-030
   1.6266666666666665E-005     5.3329225854997919E-030
   1.6466666666666663E-005     4.2850444153010790E-030
   1.6666666666666661E-005     1.6319094669075852E-030
   1.6866666666666666E-005    -2.6683403909993464E-030
   1.7066666666666664E-005    -8.2504529206248688E-030
   1.7266666666666662E-005    -1.4275439623730601E-029
   1.7466666666666660E-005    -1.9463265957412350E-029
   1.7666666666666665E-005    -2.2252126868975516E-029
   1.7866666666666663E-005    -2.1086948280417852E-029
   1.8066666666666661E-005    -1.4805682743974095E-029
   1.8266666666666666E-005    -3.0552093116289788E-030
   1.8466666666666664E-005     1.3361760402520067E-029
   1.8666666666666662E-005     3.2320465816423881E-029
   1.8866666666666660E-005     5.0486869229963860E-029
   1.9066666666666665E-005     6.3763134893913593E-029
   1.9266666666666663E-005     6.8046066052490538E-029
   1.9466666666666661E-005     6.0188771417469941E-029
   1.9666666666666666E-005     3.8969200290889492E-029
   1.9866666666666664E-005     5.8121390946464077E-030
   2.0066666666666662E-005    -3.4990466757762973E-029
   2.0266666666666660E-005    -7.6745545778067368E-029
   2.0466666666666665E-005    -1.1155117441868331E-028
   2.0666666666666663E-005    -1.3205623757295825E-028
   2.0866666666666661E-005    -1.3341889319392298E-028
   2.1066666666666659E-005    -1.1493367314294846E-028
   2.1266666666666664E-005    -8.0748675426911305E-029
   2.1466666666666662E-005    -3.9210468155407065E-029
   2.1666666666666660E-005    -6.7159645698919641E-031
   2.1866666666666665E-005     2.5958020828191433E-029
   2.2066666666666663E-005     3.7129329322360984E-029
   2.2266666666666661E-005     3.7830969675225559E-029
   2.2466666666666659E-005     4.2632105387260809E-029
   2.2666666666666664E-005     7.3403942972465066E-029
   2.2866666666666662E-005     1.5319860298289308E-028
   2.3066666666666660E-005     2.9684707307642886E-028
   2.3266666666666665E-005     5.0015009171351695E-028
   2.3466666666666663E-005     7.3074784693082274E-028
   2.3666666666666661E-005     9.2445195850271193E-028
   2.3866666666666660E-005     9.9059474836178609E-028
   2.4066666666666664E-005     8.2852562501866137E-028
   2.4266666666666662E-005     3.5474579943793193E-028
   2.4466666666666661E-005    -4.6331056669953764E-028
   2.4666666666666665E-005    -1.5744461887926098E-027
   2.4866666666666663E-005    -2.8220813253221495E-027
   2.5066666666666662E-005    -3.9446970306277251E-027
   2.5266666666666660E-005    -4.6067793602135695E-027
   2.5466666666666665E-005    -4.4628746451409330E-027
   2.5666666666666663E-005    -3.2486817413517221E-027
   2.5866666666666661E-005    -8.8299102014242962E-028
   2.6066666666666666E-005     2.4447253972266031E-027
   2.6266666666666664E-005     6.2311787791597399E-027
   2.6466666666666662E-005     9.6886494302245156E-027
   2.6666666666666660E-005     1.1864035065472519E-026
   2.6866666666666665E-005     1.1845034611013173E-026
   2.7066666666666663E-005     9.0250255863111837E-027
   2.7266666666666661E-005     3.3714697901421192E-027
   2.7466666666666666E-005    -4.3776133413169212E-027
   2.7666666666666664E-005    -1.2670174643782596E-026
   2.7866666666666662E-005    -1.9315182227138699E-026
   2.8066666666666667E-005    -2.1901863298334218E-026
   2.8266666666666658E-005    -1.8427872405392478E-026
   2.8466666666666663E-005    -8.0290209007356139E-027
   2.8666666666666668E-005     8.3634124132597921E-027
   2.8866666666666659E-005     2.7652067651716479E-026
   2.9066666666666664E-005     4.4697521409723398E-026
   2.9266666666666669E-005     5.3077630865229050E-026
   2.9466666666666660E-005     4.6492774696268027E-026
   2.9666666666666665E-005     2.0649597455846394E-026
   2.9866666666666656E-005    -2.4736588738927259E-026
   3.0066666666666661E-005    -8.4339307233595196E-026
   3.0266666666666666E-005    -1.4660594121246045E-025
   3.0466666666666657E-005    -1.9464892619510092E-025
   3.0666666666666662E-005    -2.0892667995606738E-025
   3.0866666666666667E-005    -1.7160687847332243E-025
   3.1066666666666658E-005    -7.2010434338977240E-026
   3.1266666666666663E-005     8.7958921541491944E-026
   3.1466666666666668E-005     2.8985850867253624E-025
   3.1666666666666659E-005     4.9777261170104259E-025
   3.1866666666666664E-005     6.6165422463334223E-025
   3.2066666666666656E-005     7.2547144484010506E-025
   3.2266666666666660E-005     6.3958736922778829E-025
   3.2466666666666665E-005     3.7550400316483023E-025
   3.2666666666666657E-005    -6.0118880045715360E-026
   3.2866666666666661E-005    -6.1604845006928536E-025
   3.3066666666666666E-005    -1.1955604128828070E-024
   3.3266666666666658E-005    -1.6669112132472164E-024
   3.3466666666666662E-005    -1.8860236405595942E-024
   3.3666666666666667E-005    -1.7292819090728368E-024
   3.3866666666666659E-005    -1.1310531859030086E-024
   3.4066666666666664E-005    -1.1766970969614523E-025
   3.4266666666666668E-005     1.1720070970127837E-024
   3.4466666666666660E-005     2.4888549726809344E-024
   3.4666666666666665E-005     3.5049701386171101E-024
   3.4866666666666656E-005     3.8751119583863136E-024
   3.5066666666666661E-005     3.3213635517878248E-024
   3.5266666666666666E-005     1.7262331588893839E-024
   3.5466666666666657E-005    -7.8723570384483679E-025
   3.5666666666666662E-005    -3.8129256587972887E-024
   3.5866666666666667E-005    -6.6790809695318547E-024
   3.6066666666666658E-005    -8.5396125699392319E-024
   3.6266666666666663E-005    -8.5386020391196438E-024
   3.6466666666666668E-005    -6.0286963131828867E-024
   3.6666666666666659E-005    -8.0479643784834858E-025
   3.6866666666666664E-005     6.7007580783464229E-024
   3.7066666666666669E-005     1.5321581511895442E-023
   3.7266666666666660E-005     2.3212449861738113E-023
   3.7466666666666665E-005     2.8087827981613807E-023
   3.7666666666666656E-005     2.7639549883612915E-023
   3.7866666666666661E-005     2.0085094422245365E-023
   3.8066666666666666E-005     4.7531240066586150E-024
   3.8266666666666657E-005    -1.7421715412767408E-023
   3.8466666666666662E-005    -4.3635711599111812E-023
   3.8666666666666667E-005    -6.9308896303272899E-023
   3.8866666666666658E-005    -8.8607248700688676E-023
   3.9066666666666663E-005    -9.5387198947588426E-023
   3.9266666666666668E-005    -8.4456142710558118E-023
   3.9466666666666659E-005    -5.2944216638178196E-023
   3.9666666666666664E-005    -1.5082494929247642E-024
   3.9866666666666655E-005     6.4938714173431603E-023
   4.0066666666666660E-005     1.3724172888702723E-022
   4.0266666666666665E-005     2.0292373935979428E-022
   4.0466666666666656E-005     2.4800446427698460E-022
   4.0666666666666661E-005     2.5950893403968919E-022
   4.0866666666666666E-005     2.2825868259590194E-022
   4.1066666666666657E-005     1.5139559746624746E-022
   4.1266666666666662E-005     3.4041957612161131E-023
   4.1466666666666667E-005    -1.1041498025938698E-022
   4.1666666666666658E-005    -2.6170721801438876E-022
   4.1866666666666663E-005    -3.9570237406876081E-022
   4.2066666666666668E-005    -4.8863508595229561E-022
   4.2266666666666660E-005    -5.2178259204935009E-022
   4.2466666666666664E-005    -4.8558652351773815E-022
   4.2666666666666656E-005    -3.8219073924058635E-022
   4.2866666666666661E-005    -2.2558720829581461E-022
   4.3066666666666665E-005    -3.9022317341303637E-023
   4.3266666666666657E-005     1.5004879101998173E-022
   4.3466666666666662E-005     3.1649059127788646E-022
   4.3666666666666666E-005     4.4396733287443212E-022
   4.3866666666666658E-005     5.2957088323796506E-022
   4.4066666666666663E-005     5.8494104279720236E-022
   4.4266666666666667E-005     6.3284870441079373E-022
   4.4466666666666659E-005     6.9925191045577555E-022
   4.4666666666666664E-005     8.0211346550613720E-022
   4.4866666666666655E-005     9.3950360121754185E-022
   4.5066666666666660E-005     1.0803652297828983E-021
   4.5266666666666665E-005     1.1614867880273275E-021
   4.5466666666666656E-005     1.0934886440715081E-021
   4.5666666666666661E-005     7.7697190047689179E-022
   4.5866666666666666E-005     1.2759313960083283E-022
   4.6066666666666657E-005    -8.9383963672324181E-022
   4.6266666666666662E-005    -2.2525065120356601E-021
   4.6466666666666667E-005    -3.8195747370200123E-021
   4.6666666666666658E-005    -5.3684995145939666E-021
   4.6866666666666663E-005    -6.5930208580308161E-021
   4.7066666666666668E-005    -7.1484269990236417E-021
   4.7266666666666659E-005    -6.7125747098356543E-021
   4.7466666666666664E-005    -5.0577926242812199E-021
   4.7666666666666655E-005    -2.1203722851675917E-021
   4.7866666666666660E-005     1.9479160326634392E-021
   4.8066666666666665E-005     6.7609300405466277E-021
   4.8266666666666656E-005     1.1722072587923422E-020
   4.8466666666666661E-005     1.6093596917263296E-020
   4.8666666666666666E-005     1.9104350170023053E-020
   4.8866666666666657E-005     2.0079445862619621E-020
   4.9066666666666662E-005     1.8568089948257206E-020
   4.9266666666666667E-005     1.4443080789535905E-020
   4.9466666666666658E-005     7.9483647735314048E-021
   4.9666666666666663E-005    -3.1969667345799846E-022
   4.9866666666666655E-005    -9.4980076795863745E-021
   5.0066666666666659E-005    -1.8594071820544467E-020
   5.0266666666666664E-005    -2.6645675035312312E-020
   5.0466666666666656E-005    -3.2865278372841205E-020
   5.0666666666666660E-005    -3.6732224951904434E-020
   5.0866666666666665E-005    -3.8007045985167896E-020
   5.1066666666666657E-005    -3.6662583452910858E-020
   5.1266666666666661E-005    -3.2752536240289642E-020
   5.1466666666666666E-005    -2.6262822889845239E-020
   5.1666666666666658E-005    -1.7007387540477174E-020
   5.1866666666666662E-005    -4.6308486825495165E-021
   5.2066666666666667E-005     1.1238961951688374E-020
   5.2266666666666659E-005     3.0684374682579666E-020
   5.2466666666666664E-005     5.3086041257649548E-020
   5.2666666666666655E-005     7.6710287240421341E-020
   5.2866666666666660E-005     9.8442939183346284E-020
   5.3066666666666665E-005     1.1383063761419787E-019
   5.3266666666666656E-005     1.1756162284242123E-019
   5.3466666666666661E-005     1.0444139449163942E-019
   5.3666666666666666E-005     7.0797690694771797E-020
   5.3866666666666657E-005     1.6104469818674394E-020
   5.4066666666666662E-005    -5.5526282225817800E-020
   5.4266666666666667E-005    -1.3443325098045028E-019
   5.4466666666666658E-005    -2.0553946711900728E-019
   5.4666666666666663E-005    -2.4989987090051904E-019
   5.4866666666666668E-005    -2.4781209288382934E-019
   5.5066666666666659E-005    -1.8331153432196768E-019
   5.5266666666666664E-005    -4.9478024828535292E-020
   5.5466666666666655E-005     1.4640767262413276E-019
   5.5666666666666660E-005     3.7910708524373878E-019
   5.5866666666666665E-005     6.0441689278579941E-019
   5.6066666666666656E-005     7.6208832258515796E-019
   5.6266666666666661E-005     7.8336924990309799E-019
   5.6466666666666666E-005     6.0308906110749866E-019
   5.6666666666666657E-005     1.7521889034723756E-019
   5.6866666666666662E-005    -5.1020944791849994E-019
   5.7066666666666667E-005    -1.4118596834536047E-018
   5.7266666666666658E-005    -2.4271098378354905E-018
   5.7466666666666663E-005    -3.3909231099942615E-018
   5.7666666666666654E-005    -4.0864653726849878E-018
   5.7866666666666659E-005    -4.2689182547570343E-018
   5.8066666666666664E-005    -3.7018768458651957E-018
   5.8266666666666655E-005    -2.2032495350699583E-018
   5.8466666666666660E-005     3.0492330486208703E-019
   5.8666666666666665E-005     3.7504009149587814E-018
   5.8866666666666656E-005     7.8772939129016859E-018
   5.9066666666666661E-005     1.2234060816663383E-017
   5.9266666666666666E-005     1.6190202643069723E-017
   5.9466666666666657E-005     1.8985823304953965E-017
   5.9666666666666662E-005     1.9813875765872624E-017
   5.9866666666666667E-005     1.7929727075321788E-017
   6.0066666666666659E-005     1.2777535022722973E-017
   6.0266666666666663E-005     4.1183949579198410E-018
   6.0466666666666655E-005    -7.8576285210188503E-018
   6.0666666666666660E-005    -2.2454183341582685E-017
   6.0866666666666664E-005    -3.8442706116422178E-017
   6.1066666666666656E-005    -5.4100146542364872E-017
   6.1266666666666661E-005    -6.7315991336789894E-017
   6.1466666666666665E-005    -7.5766203776835608E-017
   6.1666666666666657E-005    -7.7143704342197715E-017
   6.1866666666666662E-005    -6.9427346689274346E-017
   6.2066666666666666E-005    -5.1166031030520876E-017
   6.2266666666666658E-005    -2.1751632377561797E-017
   6.2466666666666663E-005     1.8345752601321657E-017
   6.2666666666666668E-005     6.7404367313435060E-017
   6.2866666666666659E-005     1.2235913701235502E-016
   6.3066666666666664E-005     1.7880735814618232E-016
   6.3266666666666655E-005     2.3112268053722927E-016
   6.3466666666666660E-005     2.7268624315186297E-016
   6.3666666666666665E-005     2.9624215000566625E-016
   6.3866666666666656E-005     2.9438471263145598E-016
   6.4066666666666661E-005     2.6018382509215268E-016
   6.4266666666666666E-005     1.8795135674447831E-016
   6.4466666666666657E-005     7.4140840195283212E-017
   6.4666666666666662E-005    -8.1644824189017266E-017
   6.4866666666666667E-005    -2.7559304846860291E-016
   6.5066666666666658E-005    -4.9866200739444029E-016
   6.5266666666666663E-005    -7.3574208240794587E-016
   6.5466666666666654E-005    -9.6518610246239473E-016
   6.5666666666666659E-005    -1.1589334542020280E-015
   6.5866666666666664E-005    -1.2834737672280118E-015
   6.6066666666666655E-005    -1.3018774638312428E-015
   6.6266666666666660E-005    -1.1770603827897437E-015
   6.6466666666666665E-005    -8.7633065222952411E-016
   6.6666666666666656E-005    -3.7708747435414897E-016
   6.6866666666666661E-005     3.2668194656136444E-016
   6.7066666666666666E-005     1.2177315167851061E-015
   6.7266666666666657E-005     2.2495962646135962E-015
   6.7466666666666662E-005     3.3424585019518286E-015
   6.7666666666666667E-005     4.3820953064669689E-015
   6.7866666666666658E-005     5.2231575184760737E-015
   6.8066666666666663E-005     5.6978292764032264E-015
   6.8266666666666655E-005     5.6305024390742447E-015
   6.8466666666666659E-005     4.8584213197401093E-015
   6.8666666666666664E-005     3.2573806069054754E-015
   6.8866666666666656E-005     7.7051548481025427E-016
   6.9066666666666660E-005    -2.5628523419142860E-015
   6.9266666666666665E-005    -6.5823421610241087E-015
   6.9466666666666657E-005    -1.0990332111721589E-014
   6.9666666666666661E-005    -1.5349422850374078E-014
   6.9866666666666666E-005    -1.9098077272731127E-014
   7.0066666666666658E-005    -2.1587754438332114E-014
   7.0266666666666662E-005    -2.2142820210865541E-014
   7.0466666666666654E-005    -2.0141633722209687E-014
   7.0666666666666659E-005    -1.5113862987742657E-014
   7.0866666666666664E-005    -6.8452357768634259E-015
   7.1066666666666655E-005     4.5224931350567373E-015
   7.1266666666666660E-005     1.8411426625907640E-014
   7.1466666666666665E-005     3.3763698895116281E-014
   7.1666666666666656E-005     4.9049929699493400E-014
   7.1866666666666661E-005     6.2342898855469175E-014
   7.2066666666666666E-005     7.1463993576992291E-014
   7.2266666666666657E-005     7.4201705706471860E-014
   7.2466666666666662E-005     6.8591481236154883E-014
   7.2666666666666667E-005     5.3234736632984739E-014
   7.2866666666666658E-005     2.7624007681997798E-014
   7.3066666666666663E-005    -7.5684519889869344E-015
   7.3266666666666654E-005    -5.0286716387097294E-014
   7.3466666666666659E-005    -9.7020617451440416E-014
   7.3666666666666664E-005    -1.4291089741724078E-013
   7.3866666666666655E-005    -1.8205855117740810E-013
   7.4066666666666660E-005    -2.0804588791740325E-013
   7.4266666666666665E-005    -2.1464947874694218E-013
   7.4466666666666656E-005    -1.9669349157237781E-013
   7.4666666666666661E-005    -1.5096153222881464E-013
   7.4866666666666666E-005    -7.7056579433215644E-014
   7.5066666666666657E-005     2.1919056129057583E-014
   7.5266666666666662E-005     1.3899669718160645E-013
   7.5466666666666653E-005     2.6340767674687404E-013