  -3.3333333333333335E-005     0.0000000000000000     
  -3.3133333333333337E-005     0.0000000000000000     
  -3.2933333333333332E-005     0.0000000000000000     
  -3.2733333333333334E-005     0.0000000000000000     
  -3.2533333333333336E-005     0.0000000000000000     
  -3.2333333333333338E-005     0.0000000000000000     
  -3.2133333333333333E-005     0.0000000000000000     
  -3.1933333333333335E-005     0.0000000000000000     
  -3.1733333333333337E-005     0.0000000000000000     
  -3.1533333333333332E-005     0.0000000000000000     
  -3.1333333333333334E-005     0.0000000000000000     
  -3.1133333333333336E-005     0.0000000000000000     
  -3.0933333333333338E-005     0.0000000000000000     
  -3.0733333333333333E-005     0.0000000000000000     
  -3.0533333333333335E-005     0.0000000000000000     
  -3.0333333333333337E-005     0.0000000000000000     
  -3.0133333333333335E-005     0.0000000000000000     
  -2.9933333333333334E-005     0.0000000000000000     
  -2.9733333333333336E-005     0.0000000000000000     
  -2.9533333333333334E-005     0.0000000000000000     
  -2.9333333333333336E-005     0.0000000000000000     
  -2.9133333333333334E-005     0.0000000000000000     
  -2.8933333333333336E-005     0.0000000000000000     
  -2.8733333333333335E-005     0.0000000000000000     
  -2.8533333333333333E-005     0.0000000000000000     
  -2.8333333333333335E-005     0.0000000000000000     
  -2.8133333333333337E-005     0.0000000000000000     
  -2.7933333333333336E-005     0.0000000000000000     
  -2.7733333333333334E-005     0.0000000000000000     
  -2.7533333333333336E-005     0.0000000000000000     
  -2.7333333333333335E-005     0.0000000000000000     
  -2.7133333333333333E-005     0.0000000000000000     
  -2.6933333333333335E-005     0.0000000000000000     
  -2.6733333333333337E-005     0.0000000000000000     
  -2.6533333333333336E-005     0.0000000000000000     
  -2.6333333333333334E-005     0.0000000000000000     
  -2.6133333333333336E-005     0.0000000000000000     
  -2.5933333333333335E-005     0.0000000000000000     
  -2.5733333333333333E-005     0.0000000000000000     
  -2.5533333333333335E-005     0.0000000000000000     
  -2.5333333333333337E-005     0.0000000000000000     
  -2.5133333333333336E-005     0.0000000000000000     
  -2.4933333333333334E-005     0.0000000000000000     
  -2.4733333333333336E-005     0.0000000000000000     
  -2.4533333333333334E-005     0.0000000000000000     
  -2.4333333333333333E-005     0.0000000000000000     
  -2.4133333333333335E-005     0.0000000000000000     
  -2.3933333333333337E-005     0.0000000000000000     
  -2.3733333333333335E-005     0.0000000000000000     
  -2.3533333333333334E-005     0.0000000000000000     
  -2.3333333333333336E-005     0.0000000000000000     
  -2.3133333333333338E-005     0.0000000000000000     
  -2.2933333333333336E-005     0.0000000000000000     
  -2.2733333333333335E-005     0.0000000000000000     
  -2.2533333333333337E-005     0.0000000000000000     
  -2.2333333333333335E-005     0.0000000000000000     
  -2.2133333333333334E-005     0.0000000000000000     
  -2.1933333333333336E-005     0.0000000000000000     
  -2.1733333333333338E-005     0.0000000000000000     
  -2.1533333333333336E-005     0.0000000000000000     
  -2.1333333333333335E-005     0.0000000000000000     
  -2.1133333333333337E-005     0.0000000000000000     
  -2.0933333333333335E-005     0.0000000000000000     
  -2.0733333333333334E-005     0.0000000000000000     
  -2.0533333333333336E-005     0.0000000000000000     
  -2.0333333333333337E-005     0.0000000000000000     
  -2.0133333333333336E-005     0.0000000000000000     
  -1.9933333333333334E-005     0.0000000000000000     
  -1.9733333333333336E-005     0.0000000000000000     
  -1.9533333333333335E-005     0.0000000000000000     
  -1.9333333333333333E-005     0.0000000000000000     
  -1.9133333333333335E-005     0.0000000000000000     
  -1.8933333333333337E-005     0.0000000000000000     
  -1.8733333333333336E-005     0.0000000000000000     
  -1.8533333333333334E-005     0.0000000000000000     
  -1.8333333333333336E-005     0.0000000000000000     
  -1.8133333333333335E-005     0.0000000000000000     
  -1.7933333333333337E-005     0.0000000000000000     
  -1.7733333333333335E-005     0.0000000000000000     
  -1.7533333333333337E-005     0.0000000000000000     
  -1.7333333333333336E-005     0.0000000000000000     
  -1.7133333333333334E-005     0.0000000000000000     
  -1.6933333333333336E-005     0.0000000000000000     
  -1.6733333333333335E-005     0.0000000000000000     
  -1.6533333333333337E-005     0.0000000000000000     
  -1.6333333333333335E-005     0.0000000000000000     
  -1.6133333333333337E-005     0.0000000000000000     
  -1.5933333333333336E-005     0.0000000000000000     
  -1.5733333333333334E-005     0.0000000000000000     
  -1.5533333333333336E-005     0.0000000000000000     
  -1.5333333333333334E-005     0.0000000000000000     
  -1.5133333333333336E-005     0.0000000000000000     
  -1.4933333333333335E-005     0.0000000000000000     
  -1.4733333333333337E-005     0.0000000000000000     
  -1.4533333333333335E-005     0.0000000000000000     
  -1.4333333333333337E-005     0.0000000000000000     
  -1.4133333333333336E-005     0.0000000000000000     
  -1.3933333333333334E-005     0.0000000000000000     
  -1.3733333333333336E-005     0.0000000000000000     
  -1.3533333333333335E-005     0.0000000000000000     
  -1.3333333333333337E-005     0.0000000000000000     
  -1.3133333333333335E-005     0.0000000000000000     
  -1.2933333333333337E-005     0.0000000000000000     
  -1.2733333333333336E-005     0.0000000000000000     
  -1.2533333333333338E-005     0.0000000000000000     
  -1.2333333333333336E-005     0.0000000000000000     
  -1.2133333333333335E-005     0.0000000000000000     
  -1.1933333333333337E-005     0.0000000000000000     
  -1.1733333333333335E-005     0.0000000000000000     
  -1.1533333333333337E-005     0.0000000000000000     
  -1.1333333333333336E-005     0.0000000000000000     
  -1.1133333333333337E-005     0.0000000000000000     
  -1.0933333333333336E-005     0.0000000000000000     
  -1.0733333333333334E-005     0.0000000000000000     
  -1.0533333333333336E-005     0.0000000000000000     
  -1.0333333333333335E-005     0.0000000000000000     
  -1.0133333333333337E-005     0.0000000000000000     
  -9.9333333333333354E-006     0.0000000000000000     
  -9.7333333333333373E-006     0.0000000000000000     
  -9.5333333333333358E-006     0.0000000000000000     
  -9.3333333333333343E-006     0.0000000000000000     
  -9.1333333333333362E-006     0.0000000000000000     
  -8.9333333333333348E-006     0.0000000000000000     
  -8.7333333333333367E-006     0.0000000000000000     
  -8.5333333333333352E-006     0.0000000000000000     
  -8.3333333333333371E-006     0.0000000000000000     
  -8.1333333333333356E-006     0.0000000000000000     
  -7.9333333333333376E-006     0.0000000000000000     
  -7.7333333333333361E-006     0.0000000000000000     
  -7.5333333333333346E-006     0.0000000000000000     
  -7.3333333333333365E-006     0.0000000000000000     
  -7.1333333333333351E-006     0.0000000000000000     
  -6.9333333333333370E-006     0.0000000000000000     
  -6.7333333333333355E-006     0.0000000000000000     
  -6.5333333333333374E-006     0.0000000000000000     
  -6.3333333333333359E-006     0.0000000000000000     
  -6.1333333333333379E-006     0.0000000000000000     
  -5.9333333333333364E-006     0.0000000000000000     
  -5.7333333333333349E-006     0.0000000000000000     
  -5.5333333333333368E-006     0.0000000000000000     
  -5.3333333333333354E-006     0.0000000000000000     
  -5.1333333333333373E-006     0.0000000000000000     
  -4.9333333333333358E-006     0.0000000000000000     
  -4.7333333333333377E-006     0.0000000000000000     
  -4.5333333333333362E-006     0.0000000000000000     
  -4.3333333333333348E-006     0.0000000000000000     
  -4.1333333333333367E-006     0.0000000000000000     
  -3.9333333333333352E-006     0.0000000000000000     
  -3.7333333333333371E-006     0.0000000000000000     
  -3.5333333333333356E-006     0.0000000000000000     
  -3.3333333333333376E-006     0.0000000000000000     
  -3.1333333333333361E-006     0.0000000000000000     
  -2.9333333333333346E-006     0.0000000000000000     
  -2.7333333333333365E-006     0.0000000000000000     
  -2.5333333333333384E-006     0.0000000000000000     
  -2.3333333333333336E-006     0.0000000000000000     
  -2.1333333333333355E-006     0.0000000000000000     
  -1.9333333333333374E-006     0.0000000000000000     
  -1.7333333333333393E-006     0.0000000000000000     
  -1.5333333333333345E-006     0.0000000000000000     
  -1.3333333333333364E-006     0.0000000000000000     
  -1.1333333333333383E-006     0.0000000000000000     
  -9.3333333333333343E-007     0.0000000000000000     
  -7.3333333333333535E-007     0.0000000000000000     
  -5.3333333333333726E-007     0.0000000000000000     
  -3.3333333333333918E-007     0.0000000000000000     
  -1.3333333333333432E-007     0.0000000000000000     
   6.6666666666663770E-008     0.0000000000000000     
   2.6666666666666185E-007     0.0000000000000000     
   4.6666666666666672E-007     0.0000000000000000     
   6.6666666666666480E-007     0.0000000000000000     
   8.6666666666666289E-007     0.0000000000000000     
   1.0666666666666610E-006     0.0000000000000000     
   1.2666666666666658E-006     0.0000000000000000     
   1.4666666666666639E-006     0.0000000000000000     
   1.6666666666666620E-006     0.0000000000000000     
   1.8666666666666669E-006     0.0000000000000000     
   2.0666666666666649E-006     0.0000000000000000     
   2.2666666666666630E-006     0.0000000000000000     
   2.4666666666666611E-006     0.0000000000000000     
   2.6666666666666660E-006     0.0000000000000000     
   2.8666666666666641E-006     0.0000000000000000     
   3.0666666666666622E-006     0.0000000000000000     
   3.2666666666666602E-006     0.0000000000000000     
   3.4666666666666651E-006     0.0000000000000000     
   3.6666666666666632E-006     0.0000000000000000     
   3.8666666666666613E-006     0.0000000000000000     
   4.0666666666666661E-006     0.0000000000000000     
   4.2666666666666642E-006     0.0000000000000000     
   4.4666666666666623E-006     0.0000000000000000     
   4.6666666666666604E-006     0.0000000000000000     
   4.8666666666666652E-006     0.0000000000000000     
   5.0666666666666633E-006     0.0000000000000000     
   5.2666666666666614E-006     0.0000000000000000     
   5.4666666666666663E-006     0.0000000000000000     
   5.6666666666666644E-006     0.0000000000000000     
   5.8666666666666624E-006     0.0000000000000000     
   6.0666666666666605E-006     0.0000000000000000     
   6.2666666666666654E-006     0.0000000000000000     
   6.4666666666666635E-006     0.0000000000000000     
   6.6666666666666616E-006     0.0000000000000000     
   6.8666666666666664E-006     0.0000000000000000     
   7.0666666666666645E-006     0.0000000000000000     
   7.2666666666666626E-006     0.0000000000000000     
   7.4666666666666607E-006     0.0000000000000000     
   7.6666666666666655E-006     0.0000000000000000     
   7.8666666666666636E-006     0.0000000000000000     
   8.0666666666666617E-006     0.0000000000000000     
   8.2666666666666598E-006     0.0000000000000000     
   8.4666666666666647E-006     0.0000000000000000     
   8.6666666666666627E-006     0.0000000000000000     
   8.8666666666666608E-006     0.0000000000000000     
   9.0666666666666657E-006     0.0000000000000000     
   9.2666666666666638E-006     0.0000000000000000     
   9.4666666666666619E-006     0.0000000000000000     
   9.6666666666666599E-006     0.0000000000000000     
   9.8666666666666648E-006     0.0000000000000000     
   1.0066666666666663E-005     0.0000000000000000     
   1.0266666666666661E-005     0.0000000000000000     
   1.0466666666666666E-005     0.0000000000000000     
   1.0666666666666664E-005     0.0000000000000000     
   1.0866666666666662E-005    -1.7122098683283410E-036
   1.1066666666666660E-005    -2.8283010024326828E-036
   1.1266666666666665E-005    -3.2940678594381782E-036
   1.1466666666666663E-005    -1.6584172264537976E-036
   1.1666666666666661E-005    -6.5084960707754032E-038
   1.1866666666666666E-005     3.5708905371129474E-036
   1.2066666666666664E-005     8.1059927993756351E-036
   1.2266666666666662E-005     1.8128143270595149E-035
   1.2466666666666660E-005     3.0017654479282031E-035
   1.2666666666666665E-005     4.0683853742240861E-035
   1.2866666666666663E-005     4.5700643226359605E-035
   1.3066666666666661E-005     3.9859380486467710E-035
   1.3266666666666666E-005     1.8215148793627081E-035
   1.3466666666666664E-005     9.6645925542524439E-036
   1.3666666666666662E-005     1.2121033516754874E-036
   1.3866666666666660E-005    -1.5946672850350834E-035
   1.4066666666666665E-005    -3.8899891832186783E-035
   1.4266666666666663E-005    -6.1326292185523533E-035
   1.4466666666666661E-005    -1.0569364471978738E-034
   1.4666666666666666E-005    -1.5231457719286473E-034
   1.4866666666666664E-005    -1.8175949386063893E-034
   1.5066666666666662E-005    -2.0958194133835289E-034
   1.5266666666666661E-005    -2.1019583867129502E-034
   1.5466666666666665E-005    -1.7247187166881877E-034
   1.5666666666666663E-005    -6.9418623737380853E-035
   1.5866666666666662E-005     1.0052394913456558E-034
   1.6066666666666660E-005     3.4862921659282793E-034
   1.6266666666666665E-005     6.6040039455589031E-034
   1.6466666666666663E-005     1.0149361488373637E-033
   1.6666666666666661E-005     1.3408165191704071E-033
   1.6866666666666666E-005     1.5089979856914058E-033
   1.7066666666666664E-005     1.4060382722128048E-033
   1.7266666666666662E-005     8.4790473823475153E-034
   1.7466666666666660E-005    -3.0937838115179189E-034
   1.7666666666666665E-005    -2.1401590143787975E-033
   1.7866666666666663E-005    -4.5647711312672802E-033
   1.8066666666666661E-005    -7.2739781446715160E-033
   1.8266666666666666E-005    -9.6470764256871197E-033
   1.8466666666666664E-005    -1.0799123337630349E-032
   1.8666666666666662E-005    -9.6271620820162516E-033
   1.8866666666666660E-005    -5.0164074484547267E-033
   1.9066666666666665E-005     3.8363551182871257E-033
   1.9266666666666663E-005     1.6996508083369980E-032
   1.9466666666666661E-005     3.3301928344212151E-032
   1.9666666666666666E-005     5.0036404043104458E-032
   1.9866666666666664E-005     6.2781372403476880E-032
   2.0066666666666662E-005     6.5688076059472691E-032
   2.0266666666666660E-005     5.2337651701293988E-032
   2.0466666666666665E-005     1.7230648925638517E-032
   2.0666666666666663E-005    -4.2168987860995880E-032
   2.0866666666666661E-005    -1.2311993824156646E-031
   2.1066666666666659E-005    -2.1554078356649313E-031
   2.1266666666666664E-005    -3.0087795887404261E-031
   2.1466666666666662E-005    -3.5272212629191789E-031
   2.1666666666666660E-005    -3.3986137173798947E-031
   2.1866666666666665E-005    -2.3218691204871351E-031
   2.2066666666666663E-005    -9.2467236209481879E-033
   2.2266666666666661E-005     3.2958120344230824E-031
   2.2466666666666659E-005     7.5515849476768213E-031
   2.2666666666666664E-005     1.2017442681507260E-030
   2.2866666666666662E-005     1.5664126143916325E-030
   2.3066666666666660E-005     1.7178283238396956E-030
   2.3266666666666665E-005     1.5163970224760094E-030
   2.3466666666666663E-005     8.4577232315675076E-031
   2.3666666666666661E-005    -3.4723863322442805E-031
   2.3866666666666660E-005    -2.0107776908668770E-030
   2.4066666666666664E-005    -3.9537393258834029E-030
   2.4266666666666662E-005    -5.8311881216608050E-030
   2.4466666666666661E-005    -7.1614426044185671E-030
   2.4666666666666665E-005    -7.3840424901705052E-030
   2.4866666666666663E-005    -5.9615374677093636E-030
   2.5066666666666662E-005    -2.5184829168627334E-030
   2.5266666666666660E-005     3.0007523258977568E-030
   2.5466666666666665E-005     1.0185705569649154E-029
   2.5666666666666663E-005     1.8064621025244651E-029
   2.5866666666666661E-005     2.5103369855143599E-029
   2.6066666666666666E-005     2.9335767922171915E-029
   2.6266666666666664E-005     2.8646110464680074E-029
   2.6466666666666662E-005     2.1197000130411892E-029
   2.6666666666666660E-005     5.9592823993467461E-030
   2.6866666666666665E-005    -1.6738707031867414E-029
   2.7066666666666663E-005    -4.4760414457616686E-029
   2.7266666666666661E-005    -7.3947410310115763E-029
   2.7466666666666666E-005    -9.8278206909763344E-029
   2.7666666666666664E-005    -1.1050055555989577E-028
   2.7866666666666662E-005    -1.0326941084245085E-028
   2.8066666666666667E-005    -7.0723247101403549E-029
   2.8266666666666658E-005    -1.0312699584622726E-029
   2.8466666666666663E-005     7.5423653668081808E-029
   2.8666666666666668E-005     1.7753517135384274E-028
   2.8866666666666659E-005     2.8022728469546352E-028
   2.9066666666666664E-005     3.6172568252000724E-028
   2.9266666666666669E-005     3.9670873143821878E-028
   2.9466666666666660E-005     3.6035085742920641E-028
   2.9666666666666665E-005     2.3370567651681208E-028
   2.9866666666666656E-005     9.7970198049508908E-030
   3.0066666666666661E-005    -3.0057102714277172E-028
   3.0266666666666666E-005    -6.6455296066675291E-028
   3.0466666666666657E-005    -1.0259477924964387E-027
   3.0666666666666662E-005    -1.3081382257324648E-027
   3.0866666666666667E-005    -1.4222149081984095E-027
   3.1066666666666658E-005    -1.2805536126214925E-027
   3.1266666666666663E-005    -8.1515476008325576E-028
   3.1466666666666668E-005     1.1052230164114870E-030
   3.1666666666666659E-005     1.1333957129832943E-027
   3.1866666666666664E-005     2.4682361870227103E-027
   3.2066666666666656E-005     3.8061502526603739E-027
   3.2266666666666660E-005     4.8687497438529656E-027
   3.2466666666666665E-005     5.3245383985617045E-027
   3.2666666666666657E-005     4.8357535564877568E-027
   3.2866666666666661E-005     3.1253763877782626E-027
   3.3066666666666666E-005     5.9013382390941487E-029
   3.3266666666666658E-005    -4.2688537662414407E-027
   3.3466666666666662E-005    -9.4601532497625252E-027
   3.3666666666666667E-005    -1.4770371203629744E-026
   3.3866666666666659E-005    -1.9120159479482136E-026
   3.4066666666666664E-005    -2.1182315841439725E-026
   3.4266666666666668E-005    -1.9558371712332408E-026
   3.4466666666666660E-005    -1.3046007546478121E-026
   3.4666666666666665E-005    -9.7950399188754053E-028
   3.4866666666666656E-005     1.6398299696606009E-026
   3.5066666666666661E-005     3.7599409532815043E-026
   3.5266666666666666E-005     5.9678134829802230E-026
   3.5466666666666657E-005     7.8243113417563658E-026
   3.5666666666666662E-005     8.7789057601884901E-026
   3.5866666666666667E-005     8.2414277083677978E-026
   3.6066666666666658E-005     5.6933065279980304E-026
   3.6266666666666663E-005     8.3083670243332716E-027
   3.6466666666666668E-005    -6.2773390828808243E-026
   3.6666666666666659E-005    -1.5047186501206081E-025
   3.6866666666666664E-005    -2.4288309901369268E-025
   3.7066666666666669E-005    -3.2207147117391324E-025
   3.7266666666666660E-005    -3.6543192573458151E-025
   3.7466666666666665E-005    -3.4863996133511088E-025
   3.7666666666666656E-005    -2.5020133697952472E-025
   3.7866666666666661E-005    -5.7266778094792080E-026
   3.8066666666666666E-005     2.2804008943628043E-025
   3.8266666666666657E-005     5.8295139636028520E-025
   3.8466666666666662E-005     9.6053774579586603E-025
   3.8666666666666667E-005     1.2899751317165706E-024
   3.8866666666666658E-005     1.4820491542872719E-024
   3.9066666666666663E-005     1.4407876860320737E-024
   3.9266666666666668E-005     1.0811408717459305E-024
   3.9466666666666659E-005     3.5129031210952389E-025
   3.9666666666666664E-005    -7.4337104390621585E-025
   3.9866666666666655E-005    -2.1190375719590030E-024
   4.0066666666666660E-005    -3.6006238621101365E-024
   4.0266666666666665E-005    -4.9231160375551435E-024
   4.0466666666666656E-005    -5.7522411922395410E-024
   4.0666666666666661E-005    -5.7273739299242590E-024
   4.0866666666666666E-005    -4.5260405343294315E-024
   4.1066666666666657E-005    -1.9446194397385058E-024
   4.1266666666666662E-005     2.0155007614401030E-024
   4.1466666666666667E-005     7.0720638623812801E-024
   4.1666666666666658E-005     1.2615732597863101E-023
   4.1866666666666663E-005     1.7713658634293410E-023
   4.2066666666666668E-005     2.1180011270586784E-023
   4.2266666666666660E-005     2.1723017363808425E-023
   4.2466666666666664E-005     1.8165922057587479E-023
   4.2666666666666656E-005     9.7233764554529770E-024
   4.2866666666666661E-005    -3.7027975209848145E-024
   4.3066666666666665E-005    -2.1260921578191682E-023
   4.3266666666666657E-005    -4.0983659054511017E-023
   4.3466666666666662E-005    -5.9785458221969998E-023
   4.3666666666666666E-005    -7.3679677967402162E-023
   4.3866666666666658E-005    -7.8247340380812865E-023
   4.4066666666666663E-005    -6.9350762729234788E-023
   4.4266666666666667E-005    -4.4034581760896902E-023
   4.4466666666666659E-005    -1.5010260908308817E-024
   4.4666666666666664E-005     5.6005779500453701E-023
   4.4866666666666655E-005     1.2260844744759885E-022
   4.5066666666666660E-005     1.8870908431466134E-022
   4.5266666666666665E-005     2.4158886679410109E-022
   4.5466666666666656E-005     2.6680330994921443E-022
   4.5666666666666661E-005     2.5036453415701413E-022
   4.5866666666666666E-005     1.8154738849850704E-022
   4.6066666666666657E-005     5.5984612784644811E-023
   4.6266666666666662E-005    -1.2144604512653758E-022
   4.6466666666666667E-005    -3.3455724781232636E-022
   4.6666666666666658E-005    -5.5526321201857405E-022
   4.6866666666666663E-005    -7.4504380925624072E-022
   4.7066666666666668E-005    -8.5883178204150997E-022
   4.7266666666666659E-005    -8.5134848341151516E-022
   4.7466666666666664E-005    -6.8546211696153293E-022
   4.7666666666666655E-005    -3.4162917756835375E-022
   4.7866666666666660E-005     1.7301462718552965E-022
   4.8066666666666665E-005     8.1771559435492182E-022
   4.8266666666666656E-005     1.5152664430200022E-021
   4.8466666666666661E-005     2.1550466220803706E-021
   4.8666666666666666E-005     2.6031501104530575E-021
   4.8866666666666657E-005     2.7198581055215439E-021
   4.9066666666666662E-005     2.3834209706176396E-021
   4.9266666666666667E-005     1.5176455970230509E-021
   4.9466666666666658E-005     1.1933222606668184E-022
   4.9666666666666663E-005    -1.7195233068225221E-021
   4.9866666666666655E-005    -3.8003597514430602E-021
   5.0066666666666659E-005    -5.8227521295466407E-021
   5.0266666666666664E-005    -7.4089678893451048E-021
   5.0466666666666656E-005    -8.1496111926583075E-021
   5.0666666666666660E-005    -7.6680862551951754E-021
   5.0866666666666665E-005    -5.6975057564755317E-021
   5.1066666666666657E-005    -2.1596348895406256E-021
   5.1266666666666661E-005     2.7678471018499072E-021
   5.1466666666666666E-005     8.6111626263851250E-021
   5.1666666666666658E-005     1.4602061025859476E-020
   5.1866666666666662E-005     1.9732506603551848E-020
   5.2066666666666667E-005     2.2867062298381797E-020
   5.2266666666666659E-005     2.2908613583878382E-020
   5.2466666666666664E-005     1.9002130356474533E-020
   5.2666666666666655E-005     1.0750408402399242E-020
   5.2866666666666660E-005    -1.5934374342869642E-021
   5.3066666666666665E-005    -1.6997002546380512E-020
   5.3266666666666656E-005    -3.3622672083558607E-020
   5.3466666666666661E-005    -4.8936143979130632E-020
   5.3666666666666666E-005    -5.9965082026793665E-020
   5.3866666666666657E-005    -6.3700959252858452E-020
   5.4066666666666662E-005    -5.7610066511112517E-020
   5.4266666666666667E-005    -4.0192004799135505E-020
   5.4466666666666658E-005    -1.1500009328576313E-020
   5.4666666666666663E-005     2.6476860720104737E-020
   5.4866666666666668E-005     6.9670165971679594E-020
   5.5066666666666659E-005     1.1211060600327335E-019
   5.5266666666666664E-005     1.4647604427163909E-019
   5.5466666666666655E-005     1.6500411451100265E-019
   5.5666666666666660E-005     1.6069982849479468E-019
   5.5866666666666665E-005     1.2870176821485863E-019
   5.6066666666666656E-005     6.7611067857790756E-020
   5.6266666666666661E-005    -1.9451690094700032E-020
   5.6466666666666666E-005    -1.2430394616594682E-019
   5.6666666666666657E-005    -2.3388299175389577E-019
   5.6866666666666662E-005    -3.3128684345385913E-019
   5.7066666666666667E-005    -3.9769316152355762E-019
   5.7266666666666658E-005    -4.1503272831904732E-019
   5.7466666666666663E-005    -3.6913826639276769E-019
   5.7666666666666654E-005    -2.5295038375264390E-019
   5.7866666666666659E-005    -6.9262133285143670E-020
   5.8066666666666664E-005     1.6755135258387434E-019
   5.8266666666666655E-005     4.3132061251385828E-019
   5.8466666666666660E-005     6.8574518721443652E-019
   5.8666666666666665E-005     8.8805779691448030E-019
   5.8866666666666656E-005     9.9451325341306416E-019
   5.9066666666666661E-005     9.6719230496105021E-019
   5.9266666666666666E-005     7.8129462922802671E-019
   5.9466666666666657E-005     4.3184951696740351E-019
   5.9666666666666662E-005    -6.1346609359076468E-020
   5.9866666666666667E-005    -6.5170892805577567E-019
   6.0066666666666659E-005    -1.2676613197727216E-018
   6.0266666666666663E-005    -1.8187253215427922E-018
   6.0466666666666655E-005    -2.2057848436474333E-018
   6.0666666666666660E-005    -2.3347402331929190E-018
   6.0866666666666664E-005    -2.1320793287562021E-018
   6.1066666666666656E-005    -1.5603233005655410E-018
   6.1266666666666661E-005    -6.3094514371704614E-019
   6.1466666666666665E-005     5.8770241603945837E-019
   6.1666666666666657E-005     1.9695956206469514E-018
   6.1866666666666662E-005     3.3388429914473104E-018
   6.2066666666666666E-005     4.4865043925763517E-018
   6.2266666666666658E-005     5.1955660951986447E-018
   6.2466666666666663E-005     5.2718453825658347E-018
   6.2666666666666668E-005     4.5773077307290540E-018
   6.2866666666666659E-005     3.0613234823454633E-018
   6.3066666666666664E-005     7.8487321935308424E-019
   6.3266666666666655E-005    -2.0671104954947559E-018
   6.3466666666666660E-005    -5.1892203791294441E-018
   6.3666666666666665E-005    -8.1772163681236129E-018
   6.3866666666666656E-005    -1.0568015665405016E-017
   6.4066666666666661E-005    -1.1895570238200559E-017
   6.4266666666666666E-005    -1.1757551844273636E-017
   6.4466666666666657E-005    -9.8852930478476368E-018
   6.4666666666666662E-005    -6.2076654152297394E-018
   6.4866666666666667E-005    -8.9878219355623030E-019
   6.5066666666666658E-005     5.6001248299569983E-018
   6.5266666666666663E-005     1.2592459978109134E-017
   6.5466666666666654E-005     1.9176165835708542E-017
   6.5666666666666659E-005     2.4331881677716832E-017
   6.5866666666666664E-005     2.7044175473414933E-017
   6.6066666666666655E-005     2.6445232189838762E-017
   6.6266666666666660E-005     2.1965255079476066E-017
   6.6466666666666665E-005     1.3470108534195247E-017
   6.6666666666666656E-005     1.3646759571450846E-018
   6.6866666666666661E-005    -1.3358854396168090E-017
   6.7066666666666666E-005    -2.9145083534762840E-017
   6.7266666666666657E-005    -4.3982516658424566E-017
   6.7466666666666662E-005    -5.5595093519819708E-017
   6.7666666666666667E-005    -6.1708123682709093E-017
   6.7866666666666658E-005    -6.0366430111703182E-017
   6.8066666666666663E-005    -5.0270839628003739E-017
   6.8266666666666655E-005    -3.1089980369499571E-017
   6.8466666666666659E-005    -3.6989176072237873E-018
   6.8666666666666664E-005     2.9703205455109519E-017
   6.8866666666666656E-005     6.5637324236564581E-017
   6.9066666666666660E-005     9.9576716823182717E-017
   6.9266666666666665E-005     1.2637270998869092E-016
   6.9466666666666657E-005     1.4085289704068079E-016
   6.9666666666666661E-005     1.3854252203281608E-016
   6.9866666666666666E-005     1.1643165338702863E-016
   7.0066666666666658E-005     7.3689365016951769E-017
   7.0266666666666662E-005     1.2212441624173697E-017
   7.0466666666666654E-005    -6.3101909779971144E-017
   7.0666666666666659E-005    -1.4445385909258543E-016
   7.0866666666666664E-005    -2.2166883993380562E-016
   7.1066666666666655E-005    -2.8316597300330959E-016
   7.1266666666666660E-005    -3.1731558857952440E-016
   7.1466666666666665E-005    -3.1406896423225787E-016
   7.1666666666666656E-005    -2.6667990605310312E-016
   7.1866666666666661E-005    -1.7328994434644542E-016
   7.2066666666666666E-005    -3.8123626158213523E-017
   7.2266666666666657E-005     1.2795210879796497E-016
   7.2466666666666662E-005     3.0770610567204277E-016
   7.2666666666666667E-005     4.7877706192469833E-016
   7.2866666666666658E-005     6.1586616806425464E-016
   7.3066666666666663E-005     6.9375201223459003E-016
   7.3266666666666654E-005     6.9084758919801424E-016
   7.3466666666666659E-005     5.9288807002937679E-016
   7.3666666666666664E-005     3.9624632729963678E-016
   7.3866666666666655E-005     1.1033332718670799E-016
   7.4066666666666660E-005    -2.4142045712369383E-016
   7.4266666666666665E-005    -6.2239186870857938E-016
   7.4466666666666656E-005    -9.8559514956825028E-016
   7.4666666666666661E-005    -1.2784530853122804E-015
   7.4866666666666666E-005    -1.4491585997877549E-015
   7.5066666666666657E-005    -1.4539860523123940E-015
   7.5266666666666662E-005    -1.2646701651945584E-015
   7.5466666666666653E-005    -8.7481843372087917E-016