  -3.3333333333333335E-005     0.0000000000000000     
  -3.3133333333333337E-005     0.0000000000000000     
  -3.2933333333333332E-005     0.0000000000000000     
  -3.2733333333333334E-005     0.0000000000000000     
  -3.2533333333333336E-005     0.0000000000000000     
  -3.2333333333333338E-005     0.0000000000000000     
  -3.2133333333333333E-005     0.0000000000000000     
  -3.1933333333333335E-005     0.0000000000000000     
  -3.1733333333333337E-005     0.0000000000000000     
  -3.1533333333333332E-005     0.0000000000000000     
  -3.1333333333333334E-005     0.0000000000000000     
  -3.1133333333333336E-005     0.0000000000000000     
  -3.0933333333333338E-005     0.0000000000000000     
  -3.0733333333333333E-005     0.0000000000000000     
  -3.0533333333333335E-005     0.0000000000000000     
  -3.0333333333333337E-005     0.0000000000000000     
  -3.0133333333333335E-005     0.0000000000000000     
  -2.9933333333333334E-005     0.0000000000000000     
  -2.9733333333333336E-005     0.0000000000000000     
  -2.9533333333333334E-005     0.0000000000000000     
  -2.9333333333333336E-005     0.0000000000000000     
  -2.9133333333333334E-005     0.0000000000000000     
  -2.8933333333333336E-005     0.0000000000000000     
  -2.8733333333333335E-005     0.0000000000000000     
  -2.8533333333333333E-005     0.0000000000000000     
  -2.8333333333333335E-005     0.0000000000000000     
  -2.8133333333333337E-005     0.0000000000000000     
  -2.7933333333333336E-005     0.0000000000000000     
  -2.7733333333333334E-005     0.0000000000000000     
  -2.7533333333333336E-005     0.0000000000000000     
  -2.7333333333333335E-005     0.0000000000000000     
  -2.7133333333333333E-005     0.0000000000000000     
  -2.6933333333333335E-005     0.0000000000000000     
  -2.6733333333333337E-005     0.0000000000000000     
  -2.6533333333333336E-005     0.0000000000000000     
  -2.6333333333333334E-005     0.0000000000000000     
  -2.6133333333333336E-005     0.0000000000000000     
  -2.5933333333333335E-005     0.0000000000000000     
  -2.5733333333333333E-005     0.0000000000000000     
  -2.5533333333333335E-005     0.0000000000000000     
  -2.5333333333333337E-005     0.0000000000000000     
  -2.5133333333333336E-005     0.0000000000000000     
  -2.4933333333333334E-005     0.0000000000000000     
  -2.4733333333333336E-005     0.0000000000000000     
  -2.4533333333333334E-005     0.0000000000000000     
  -2.4333333333333333E-005     0.0000000000000000     
  -2.4133333333333335E-005     0.0000000000000000     
  -2.3933333333333337E-005     0.0000000000000000     
  -2.3733333333333335E-005     0.0000000000000000     
  -2.3533333333333334E-005     0.0000000000000000     
  -2.3333333333333336E-005     0.0000000000000000     
  -2.3133333333333338E-005     0.0000000000000000     
  -2.2933333333333336E-005     0.0000000000000000     
  -2.2733333333333335E-005     0.0000000000000000     
  -2.2533333333333337E-005     0.0000000000000000     
  -2.2333333333333335E-005     0.0000000000000000     
  -2.2133333333333334E-005     0.0000000000000000     
  -2.1933333333333336E-005     0.0000000000000000     
  -2.1733333333333338E-005     0.0000000000000000     
  -2.1533333333333336E-005     0.0000000000000000     
  -2.1333333333333335E-005     0.0000000000000000     
  -2.1133333333333337E-005     0.0000000000000000     
  -2.0933333333333335E-005     0.0000000000000000     
  -2.0733333333333334E-005     0.0000000000000000     
  -2.0533333333333336E-005     0.0000000000000000     
  -2.0333333333333337E-005     0.0000000000000000     
  -2.0133333333333336E-005     0.0000000000000000     
  -1.9933333333333334E-005     0.0000000000000000     
  -1.9733333333333336E-005     0.0000000000000000     
  -1.9533333333333335E-005     0.0000000000000000     
  -1.9333333333333333E-005     0.0000000000000000     
  -1.9133333333333335E-005     0.0000000000000000     
  -1.8933333333333337E-005     0.0000000000000000     
  -1.8733333333333336E-005     0.0000000000000000     
  -1.8533333333333334E-005     0.0000000000000000     
  -1.8333333333333336E-005     0.0000000000000000     
  -1.8133333333333335E-005     0.0000000000000000     
  -1.7933333333333337E-005     0.0000000000000000     
  -1.7733333333333335E-005     0.0000000000000000     
  -1.7533333333333337E-005     0.0000000000000000     
  -1.7333333333333336E-005     0.0000000000000000     
  -1.7133333333333334E-005     0.0000000000000000     
  -1.6933333333333336E-005    -1.5518211785142914E-041
  -1.6733333333333335E-005    -3.0063671030001302E-041
  -1.6533333333333337E-005    -1.6280833914225034E-041
  -1.6333333333333335E-005     7.9485413171626239E-042
  -1.6133333333333337E-005     9.8756029546283217E-041
  -1.5933333333333336E-005     3.2943932975857545E-040
  -1.5733333333333334E-005     6.9269526979539554E-040
  -1.5533333333333336E-005     1.1197262853018368E-039
  -1.5333333333333334E-005     3.3520625205669626E-039
  -1.5133333333333336E-005     6.6413024087827415E-039
  -1.4933333333333335E-005     9.5289491653935483E-039
  -1.4733333333333337E-005     1.1268367662955424E-038
  -1.4533333333333335E-005     7.3329423934100891E-039
  -1.4333333333333337E-005    -4.4907314339543707E-039
  -1.4133333333333336E-005    -3.3391258131953314E-038
  -1.3933333333333334E-005    -5.8966987514883040E-038
  -1.3733333333333336E-005    -8.3640259480248609E-038
  -1.3533333333333335E-005    -1.0251114902109709E-037
  -1.3333333333333337E-005    -9.8289168544926167E-038
  -1.3133333333333335E-005    -7.0668629726404485E-038
  -1.2933333333333337E-005     3.3460050948461093E-039
  -1.2733333333333336E-005     1.4457903270573795E-037
  -1.2533333333333338E-005     3.6086249384401635E-037
  -1.2333333333333336E-005     6.3230783613284250E-037
  -1.2133333333333335E-005     8.9659788795932498E-037
  -1.1933333333333337E-005     1.0402849188848354E-036
  -1.1733333333333335E-005     9.0012614259424601E-037
  -1.1533333333333337E-005     2.9315611591243171E-037
  -1.1333333333333336E-005    -9.2479092662327125E-037
  -1.1133333333333337E-005    -2.7679844091569758E-036
  -1.0933333333333336E-005    -5.0121380576946842E-036
  -1.0733333333333334E-005    -7.0973534396928332E-036
  -1.0533333333333336E-005    -8.0922491784224325E-036
  -1.0333333333333335E-005    -6.7794161742860687E-036
  -1.0133333333333337E-005    -1.9189440786231601E-036
  -9.9333333333333354E-006     7.2827670688145404E-036
  -9.7333333333333373E-006     2.0532796170556990E-035
  -9.5333333333333358E-006     3.5765088403344752E-035
  -9.3333333333333343E-006     4.8638357341416239E-035
  -9.1333333333333362E-006     5.2540712890653822E-035
  -8.9333333333333348E-006     3.9454507929690398E-035
  -8.7333333333333367E-006     1.9578821755591282E-036
  -8.5333333333333352E-006    -6.3588488643865317E-035
  -8.3333333333333371E-006    -1.5301288438041108E-034
  -8.1333333333333356E-006    -2.5032496251841710E-034
  -7.9333333333333376E-006    -3.2514213903914414E-034
  -7.7333333333333361E-006    -3.3338161919448045E-034
  -7.5333333333333346E-006    -2.2312960679529247E-034
  -7.3333333333333365E-006     5.2869274523033961E-035
  -7.1333333333333351E-006     5.1783629745428021E-034
  -6.9333333333333370E-006     1.1463643653823035E-033
  -6.7333333333333355E-006     1.8388362835478457E-033
  -6.5333333333333374E-006     2.4019750899885126E-033
  -6.3333333333333359E-006     2.5453068803213995E-033
  -6.1333333333333379E-006     1.9050590720880659E-033
  -5.9333333333333364E-006     1.0690336895615558E-034
  -5.7333333333333349E-006    -3.1240777187704433E-033
  -5.5333333333333368E-006    -7.8050373887851816E-033
  -5.3333333333333354E-006    -1.3500086440221733E-032
  -5.1333333333333373E-006    -1.9118613842732830E-032
  -4.9333333333333358E-006    -2.2763119442565990E-032
  -4.7333333333333377E-006    -2.1711799175382987E-032
  -4.5333333333333362E-006    -1.2648247851581830E-032
  -4.3333333333333348E-006     7.7365260816698825E-033
  -4.1333333333333367E-006     4.1664039670066077E-032
  -3.9333333333333352E-006     8.8679182001307708E-032
  -3.7333333333333371E-006     1.4367333767111831E-031
  -3.5333333333333356E-006     1.9488182604956176E-031
  -3.3333333333333376E-006     2.2253227758204146E-031
  -3.1333333333333361E-006     1.9914967341209822E-031
  -2.9333333333333346E-006     9.2752628564579413E-032
  -2.7333333333333365E-006    -1.2586945111854039E-031
  -2.5333333333333384E-006    -4.7113410593539287E-031
  -2.3333333333333336E-006    -9.2642452433688203E-031
  -2.1333333333333355E-006    -1.4260856900915023E-030
  -1.9333333333333374E-006    -1.8406252881357214E-030
  -1.7333333333333393E-006    -1.9726861118902102E-030
  -1.5333333333333345E-006    -1.5731481317194735E-030
  -1.3333333333333364E-006    -3.8645085888223507E-031
  -1.1333333333333383E-006     1.7694639432122290E-030
  -9.3333333333333343E-007     4.8914045431090546E-030
  -7.3333333333333535E-007     8.6631083263871532E-030
  -5.3333333333333726E-007     1.2343343594978629E-029
  -3.3333333333333918E-007     1.4718057161637484E-029
  -1.3333333333333432E-007     1.4174998823855146E-029
   6.6666666666663770E-008     8.9564036621542229E-030
   2.6666666666666185E-007    -2.3781196779901865E-030
   4.6666666666666672E-007    -2.0295299348269565E-029
   6.6666666666666480E-007    -4.3529114071506854E-029
   8.6666666666666289E-007    -6.8398589120352581E-029
   1.0666666666666610E-006    -8.8466095944921037E-029
   1.2666666666666658E-006    -9.4848012385020556E-029
   1.4666666666666639E-006    -7.7465383203624327E-029
   1.6666666666666620E-006    -2.7391907065196325E-029
   1.8666666666666669E-006     5.9797871850939150E-029
   2.0666666666666649E-006     1.8014381053866732E-028
   2.2666666666666630E-006     3.1776593242410280E-028
   2.4666666666666611E-006     4.4294560696643859E-028
   2.6666666666666660E-006     5.1327559578017201E-028
   2.8666666666666641E-006     4.7917349970977958E-028
   3.0666666666666622E-006     2.9441499158534050E-028
   3.2666666666666602E-006    -6.8824460698943956E-029
   3.4666666666666651E-006    -6.0253683782815274E-028
   3.6666666666666632E-006    -1.2469505748677568E-027
   3.8666666666666613E-006    -1.8814829347092720E-027
   4.0666666666666661E-006    -2.3285727914610469E-027
   4.2666666666666642E-006    -2.3755251020591379E-027
   4.4666666666666623E-006    -1.8167120901264976E-027
   4.6666666666666604E-006    -5.1369513129309256E-028
   4.8666666666666652E-006     1.5354544254427611E-027
   5.0666666666666633E-006     4.1329735328601779E-027
   5.2666666666666614E-006     6.8448675886784552E-027
   5.4666666666666663E-006     9.0130766845232213E-027
   5.6666666666666644E-006     9.8343248623021574E-027
   5.8666666666666624E-006     8.5126384388965464E-027
   6.0666666666666605E-006     4.4748510330121773E-027
   6.2666666666666654E-006    -2.3836888102751175E-027
   6.4666666666666635E-006    -1.1478006243102459E-026
   6.6666666666666616E-006    -2.1407418856692740E-026
   6.8666666666666664E-006    -2.9997053002077026E-026
   7.0666666666666645E-006    -3.4562218435241927E-026
   7.2666666666666626E-006    -3.2411230144478476E-026
   7.4666666666666607E-006    -2.1542812645017612E-026
   7.6666666666666655E-006    -1.4239497196876423E-027
   7.8666666666666636E-006     2.6331054945331623E-026
   8.0666666666666617E-006     5.7599442517528788E-026
   8.2666666666666598E-006     8.5919722974346095E-026
   8.4666666666666647E-006     1.0333746640118075E-025
   8.6666666666666627E-006     1.0193965322235824E-025
   8.8666666666666608E-006     7.5906172368592319E-026
   9.0666666666666657E-006     2.3704872504801936E-026
   9.2666666666666638E-006    -5.0112593979630187E-026
   9.4666666666666619E-006    -1.3413416696294422E-025
   9.6666666666666599E-006    -2.1088084240948865E-025
   9.8666666666666648E-006    -2.5947325147647994E-025
   1.0066666666666663E-005    -2.6005666233759590E-025
   1.0266666666666661E-005    -1.9934093854610442E-025
   1.0466666666666666E-005    -7.6086082119312533E-026
   1.0666666666666664E-005     9.5009682902859435E-026
   1.0866666666666662E-005     2.8262142343983415E-025
   1.1066666666666660E-005     4.4253244453883128E-025
   1.1266666666666665E-005     5.2615711879266188E-025
   1.1466666666666663E-005     4.9295960018619492E-025
   1.1666666666666661E-005     3.2444868438758081E-025
   1.1866666666666666E-005     3.6188473577618254E-026
   1.2066666666666664E-005    -3.1636904852457576E-025
   1.2266666666666662E-005    -6.4204459387032213E-025
   1.2466666666666660E-005    -8.3027302332810463E-025
   1.2666666666666665E-005    -7.7897547023550352E-025
   1.2866666666666663E-005    -4.2965222464988548E-025
   1.3066666666666661E-005     1.9829643051088674E-025
   1.3266666666666666E-005     9.8467790644152456E-025
   1.3466666666666664E-005     1.7081874690603963E-024
   1.3666666666666662E-005     2.0772231949824826E-024
   1.3866666666666660E-005     1.7943654523407513E-024
   1.4066666666666665E-005     6.4810760705669333E-025
   1.4266666666666663E-005    -1.3849272188182935E-024
   1.4466666666666661E-005    -4.0533545786477211E-024
   1.4666666666666666E-005    -6.7913024911209132E-024
   1.4866666666666664E-005    -8.7551794846985678E-024
   1.5066666666666662E-005    -8.9558503766727980E-024
   1.5266666666666661E-005    -6.4853553648123858E-024
   1.5466666666666665E-005    -8.1066455437159453E-025
   1.5666666666666663E-005     7.9215101881255362E-024
   1.5866666666666662E-005     1.8648101849195576E-023
   1.6066666666666660E-005     2.9310530176539490E-023
   1.6266666666666665E-005     3.7011752533151758E-023
   1.6466666666666663E-005     3.8453389474177109E-023
   1.6666666666666661E-005     3.0638648855730290E-023
   1.6866666666666666E-005     1.1752956287563801E-023
   1.7066666666666664E-005    -1.7940775830328238E-023
   1.7266666666666662E-005    -5.5412845412309997E-023
   1.7466666666666660E-005    -9.4623745681967032E-023
   1.7666666666666665E-005    -1.2693307257084581E-022
   1.7866666666666663E-005    -1.4226961268759673E-022
   1.8066666666666661E-005    -1.3101932234399744E-022
   1.8266666666666666E-005    -8.6401914334373618E-023
   1.8466666666666664E-005    -6.9221818925130914E-024
   1.8666666666666662E-005     1.0165256320459250E-022
   1.8866666666666660E-005     2.2537939384102801E-022
   1.9066666666666665E-005     3.4279255984502323E-022
   1.9266666666666663E-005     4.2739417035528038E-022
   1.9466666666666661E-005     4.5190365156877632E-022
   1.9666666666666666E-005     3.9376895515577841E-022
   1.9866666666666664E-005     2.4104209489421610E-022
   2.0066666666666662E-005    -2.5629161927209120E-024
   2.0266666666666660E-005    -3.1468503416325728E-022
   2.0466666666666665E-005    -6.5446368761582814E-022
   2.0666666666666663E-005    -9.6640020833183523E-022
   2.0866666666666661E-005    -1.1878173942262432E-021
   2.1066666666666659E-005    -1.2590087996898642E-021
   2.1266666666666664E-005    -1.1344556845440593E-021
   2.1466666666666662E-005    -7.9303967945612112E-022
   2.1666666666666660E-005    -2.4515110911076283E-022
   2.1866666666666665E-005     4.6495482661308177E-022
   2.2066666666666663E-005     1.2622967028725349E-021
   2.2266666666666661E-005     2.0493838867965710E-021
   2.2466666666666659E-005     2.7179419573546570E-021
   2.2666666666666664E-005     3.1617700549496255E-021
   2.2866666666666662E-005     3.2881797700995024E-021
   2.3066666666666660E-005     3.0260765933536973E-021
   2.3266666666666665E-005     2.3300903448826340E-021
   2.3466666666666663E-005     1.1819115478216443E-021
   2.3666666666666661E-005    -4.0836918373228330E-022
   2.3866666666666660E-005    -2.3972690243901134E-021
   2.4066666666666664E-005    -4.6961259790596557E-021
   2.4266666666666662E-005    -7.1516305647264852E-021
   2.4466666666666661E-005    -9.5216070291000541E-021
   2.4666666666666665E-005    -1.1453728142947515E-020
   2.4866666666666663E-005    -1.2479240191727145E-020
   2.5066666666666662E-005    -1.2036143234444860E-020
   2.5266666666666660E-005    -9.5350479757546105E-021
   2.5466666666666665E-005    -4.4747234981420644E-021
   2.5666666666666663E-005     3.3968671741098148E-021
   2.5866666666666661E-005     1.3895564547023058E-020
   2.6066666666666666E-005     2.6224156031945616E-020
   2.6266666666666664E-005     3.8855677988618121E-020
   2.6466666666666662E-005     4.9533324208297099E-020
   2.6666666666666660E-005     5.5437928730529370E-020
   2.6866666666666665E-005     5.3553359666301520E-020
   2.7066666666666663E-005     4.1224612864544132E-020
   2.7266666666666661E-005     1.6855857414217408E-020
   2.7466666666666666E-005    -1.9356079328681158E-020
   2.7666666666666664E-005    -6.4802222039249033E-020
   2.7866666666666662E-005    -1.1413150290343028E-019
   2.8066666666666667E-005    -1.5938031648368594E-019
   2.8266666666666658E-005    -1.9068646920456170E-019
   2.8466666666666663E-005    -1.9762606156295111E-019
   2.8666666666666668E-005    -1.7109033647235591E-019
   2.8866666666666659E-005    -1.0548160971630631E-019
   2.9066666666666664E-005    -8.7538138499747386E-022
   2.9266666666666669E-005     1.3529809316781490E-019
   2.9466666666666660E-005     2.8752609035499143E-019
   2.9666666666666665E-005     4.3284940869993872E-019
   2.9866666666666656E-005     5.4310785273656900E-019
   3.0066666666666661E-005     5.8878615512366731E-019
   3.0266666666666666E-005     5.4413462864014405E-019
   3.0466666666666657E-005     3.9290861607375139E-019
   3.0666666666666662E-005     1.3379260950727483E-019
   3.0866666666666667E-005    -2.1558787148119395E-019
   3.1066666666666658E-005    -6.1715243118038569E-019
   3.1266666666666663E-005    -1.0142144211549368E-018
   3.1466666666666668E-005    -1.3371253375394345E-018
   3.1666666666666659E-005    -1.5125426218420662E-018
   3.1866666666666664E-005    -1.4754508476094069E-018
   3.2066666666666656E-005    -1.1823862031005638E-018
   3.2266666666666660E-005    -6.2377906263103548E-019
   3.2466666666666665E-005     1.6693501177833822E-019
   3.2666666666666657E-005     1.1096831514429015E-018
   3.2866666666666661E-005     2.0813331722484280E-018
   3.3066666666666666E-005     2.9273042820704746E-018
   3.3266666666666658E-005     3.4808182966548640E-018
   3.3466666666666662E-005     3.5880439384501268E-018
   3.3666666666666667E-005     3.1360852821029731E-018
   3.3866666666666659E-005     2.0797555613165520E-018
   3.4066666666666664E-005     4.6255908141995444E-019
   3.4266666666666668E-005    -1.5725670482815718E-018
   3.4466666666666660E-005    -3.7863370523761179E-018
   3.4666666666666665E-005    -5.8620628672377281E-018
   3.4866666666666656E-005    -7.4403842599680969E-018
   3.5066666666666661E-005    -8.1672802662780851E-018
   3.5266666666666666E-005    -7.7504233795779177E-018
   3.5466666666666657E-005    -6.0168443017980158E-018
   3.5666666666666662E-005    -2.9634819218831906E-018
   3.5866666666666667E-005     1.2082379099107644E-018
   3.6066666666666658E-005     6.0818954237575348E-018
   3.6266666666666663E-005     1.1045738061024683E-017
   3.6466666666666668E-005     1.5345421781838856E-017
   3.6666666666666659E-005     1.8168603766036886E-017
   3.6866666666666664E-005     1.8755448015941257E-017
   3.7066666666666669E-005     1.6524281625164976E-017
   3.7266666666666660E-005     1.1197374491453316E-017
   3.7466666666666665E-005     2.9086861835593766E-018
   3.7666666666666656E-005    -7.7258506786586757E-018
   3.7866666666666661E-005    -1.9593863614200599E-017
   3.8066666666666666E-005    -3.1142357060488039E-017
   3.8266666666666657E-005    -4.0511471161213185E-017
   3.8466666666666662E-005    -4.5744401672042952E-017
   3.8666666666666667E-005    -4.5060182079406492E-017
   3.8866666666666658E-005    -3.7163706820459760E-017
   3.9066666666666663E-005    -2.1555701515813723E-017
   3.9266666666666668E-005     1.2036068098197304E-018
   3.9466666666666659E-005     2.9327791390274066E-017
   3.9666666666666664E-005     5.9782853051707795E-017
   3.9866666666666655E-005     8.8449500395957888E-017
   4.0066666666666660E-005     1.1048874923812112E-016
   4.0266666666666665E-005     1.2090444031859111E-016
   4.0466666666666656E-005     1.1526442493764838E-016
   4.0666666666666661E-005     9.0508670483471521E-017
   4.0866666666666666E-005     4.5741845946636691E-017
   4.1066666666666657E-005    -1.7114241459421613E-017
   4.1266666666666662E-005    -9.2940957761817980E-017
   4.1466666666666667E-005    -1.7343781829963237E-016
   4.1666666666666658E-005    -2.4762187580467094E-016
   4.1866666666666663E-005    -3.0284757521935956E-016
   4.2066666666666668E-005    -3.2631224166236408E-016
   4.2266666666666660E-005    -3.0692976452972376E-016
   4.2466666666666664E-005    -2.3737336562451153E-016
   4.2666666666666656E-005    -1.1601900695548404E-016
   4.2866666666666661E-005     5.1523029821599988E-017
   4.3066666666666665E-005     2.5160534828732490E-016
   4.3266666666666657E-005     4.6274513975664604E-016
   4.3466666666666662E-005     6.5701434468328360E-016
   4.3666666666666666E-005     8.0266465294211341E-016
   4.3866666666666658E-005     8.6786148613283837E-016
   4.4066666666666663E-005     8.2521428447085347E-016
   4.4266666666666667E-005     6.5661309913303424E-016
   4.4466666666666659E-005     3.5774177844319212E-016
   4.4666666666666664E-005    -5.8436303989857392E-017
   4.4866666666666655E-005    -5.5991239293191626E-016
   4.5066666666666660E-005    -1.0961646230611994E-015
   4.5266666666666665E-005    -1.6013523022518410E-015
   4.5466666666666656E-005    -2.0002333052438191E-015
   4.5666666666666661E-005    -2.2165006837517253E-015
   4.5866666666666666E-005    -2.1828535564945780E-015
   4.6066666666666657E-005    -1.8517592770018735E-015
   4.6266666666666662E-005    -1.2055958826857052E-015
   4.6466666666666667E-005    -2.6472078525727323E-016
   4.6666666666666658E-005     9.0795936211902888E-016
   4.6866666666666663E-005     2.2071220977707168E-015
   4.7066666666666668E-005     3.4906605943464876E-015
   4.7266666666666659E-005     4.5910370947970698E-015
   4.7466666666666664E-005     5.3318854091130671E-015
   4.7666666666666655E-005     5.5486625336465277E-015
   4.7866666666666660E-005     5.1114524040865569E-015
   4.8066666666666665E-005     3.9474568605647497E-015
   4.8266666666666656E-005     2.0603602735825063E-015
   4.8466666666666661E-005    -4.5630631275995884E-016
   4.8666666666666666E-005    -3.4144120492739512E-015
   4.8866666666666657E-005    -6.5370810817315969E-015
   4.9066666666666662E-005    -9.4762070837080398E-015
   4.9266666666666667E-005    -1.1841494198109265E-014
   4.9466666666666658E-005    -1.3239517933761753E-014
   4.9666666666666663E-005    -1.3319912953716008E-014
   4.9866666666666655E-005    -1.1824502934110520E-014
   5.0066666666666659E-005    -8.6341892721437848E-015
   5.0266666666666664E-005    -3.8078028378563442E-015
   5.0466666666666656E-005     2.3928936613272272E-015
   5.0666666666666660E-005     9.4972955145943543E-015
   5.0866666666666665E-005     1.6843085989998052E-014
   5.1066666666666657E-005     2.3618442737152125E-014
   5.1266666666666661E-005     2.8928884441500806E-014
   5.1466666666666666E-005     3.1885471952375449E-014
   5.1666666666666658E-005     3.1708074613531973E-014
   5.1866666666666662E-005     2.7834679389748863E-014
   5.2066666666666667E-005     2.0025326496533275E-014
   5.2266666666666659E-005     8.4479559876785007E-015
   5.2466666666666664E-005    -6.2668989112705042E-015
   5.2666666666666655E-005    -2.3014334717462828E-014
   5.2866666666666660E-005    -4.0255335201475123E-014
   5.3066666666666665E-005    -5.6113781444318175E-014
   5.3266666666666656E-005    -6.8529416205791448E-014
   5.3466666666666661E-005    -7.5459292993531829E-014
   5.3666666666666666E-005    -7.5113493425895985E-014
   5.3866666666666657E-005    -6.6204239353623636E-014
   5.4066666666666662E-005    -4.8182422857107359E-014
   5.4266666666666667E-005    -2.1432196278475623E-014
   5.4466666666666658E-005     1.2605945666081493E-014
   5.4666666666666663E-005     5.1410356272307121E-014
   5.4866666666666668E-005     9.1471714605096977E-014
   5.5066666666666659E-005     1.2851493262302308E-013
   5.5266666666666664E-005     1.5784654225671037E-013
   5.5466666666666655E-005     1.7480980052186605E-013
   5.5666666666666660E-005     1.7531467184882442E-013
   5.5866666666666665E-005     1.5639530100855835E-013
   5.6066666666666656E-005     1.1673709520452555E-013
   5.6266666666666661E-005     5.7108694773392205E-014
   5.6466666666666666E-005    -1.9365288019483836E-014
   5.6666666666666657E-005    -1.0714817906716330E-013
   5.6866666666666662E-005    -1.9849398410788776E-013
   5.7066666666666667E-005    -2.8392926582943434E-013
   5.7266666666666658E-005    -3.5300719583187726E-013
   5.7466666666666663E-005    -3.9529476911990266E-013
   5.7666666666666654E-005    -4.0152352923738799E-013
   5.7866666666666659E-005    -3.6480385375727853E-013
   5.8066666666666664E-005    -2.8178092703058221E-013
   5.8266666666666655E-005    -1.5359666908616074E-013
   5.8466666666666660E-005     1.3478106212779272E-014
   5.8666666666666665E-005     2.0786395907337049E-013
   5.8866666666666656E-005     4.1303861621462582E-013
   5.9066666666666661E-005     6.0849861071148192E-013
   5.9266666666666666E-005     7.7131070980630499E-013
   5.9466666666666657E-005     8.7818498733974300E-013
   5.9666666666666662E-005     9.0793333697296888E-013
   5.9866666666666667E-005     8.4411451739785950E-013
   6.0066666666666659E-005     6.7761571251018188E-013
   6.0266666666666663E-005     4.0888272887385249E-013
   6.0466666666666655E-005     4.9503190199463755E-014
   6.0666666666666660E-005    -3.7713679682092127E-013
   6.0866666666666664E-005    -8.3635029960179699E-013
   6.1066666666666656E-005    -1.2839470481861227E-012
   6.1266666666666661E-005    -1.6693616507339940E-012
   6.1466666666666665E-005    -1.9400105137588088E-012
   6.1666666666666657E-005    -2.0466231399535730E-012
   6.1866666666666662E-005    -1.9491472925737955E-012
   6.2066666666666666E-005    -1.6226918473795517E-012
   6.2266666666666658E-005    -1.0628761913578305E-012
   6.2466666666666663E-005    -2.8990038676125403E-013
   6.2666666666666668E-005     6.4932959741564976E-013
   6.2866666666666659E-005     1.6816007694211113E-012
   6.3066666666666664E-005     2.7107225865092463E-012
   6.3266666666666655E-005     3.6239480059157148E-012
   6.3466666666666660E-005     4.3013400540690844E-012
   6.3666666666666665E-005     4.6275852623309387E-012
   6.3866666666666656E-005     4.5054001480141080E-012
   6.4066666666666661E-005     3.8693448070317462E-012
   6.4266666666666666E-005     2.6985960179659299E-012
   6.4466666666666657E-005     1.0270948630857929E-012
   6.4666666666666662E-005    -1.0505181257516046E-012
   6.4866666666666667E-005    -3.3785800554060215E-012
   6.5066666666666658E-005    -5.7467208771984450E-012
   6.5266666666666663E-005    -7.9032981078098570E-012
   6.5466666666666654E-005    -9.5757081239823052E-012
   6.5666666666666659E-005    -1.0496548035592034E-011
   6.5866666666666664E-005    -1.0433762633109468E-011
   6.6066666666666655E-005    -9.2221423876424571E-012
   6.6266666666666660E-005    -6.7929437046782876E-012
   6.6466666666666665E-005    -3.1980542882328240E-012
   6.6666666666666656E-005     1.3748886143476137E-012
   6.6866666666666661E-005     6.5996127416959108E-012
   6.7066666666666666E-005     1.2022956347775760E-011
   6.7266666666666657E-005     1.7092409582317367E-011
   6.7466666666666662E-005     2.1199092613585396E-011
   6.7666666666666667E-005     2.3734074084713093E-011
   6.7866666666666658E-005     2.4154086436429657E-011
   6.8066666666666663E-005     2.2051079915735431E-011
   6.8266666666666655E-005     1.7218720584179868E-011
   6.8466666666666659E-005     9.7081320223012519E-012
   6.8666666666666664E-005    -1.3484423065447689E-013
   6.8866666666666656E-005    -1.1657860445720939E-011
   6.9066666666666660E-005    -2.3921101580155862E-011
   6.9266666666666665E-005    -3.5750019782124366E-011
   6.9466666666666657E-005    -4.5821503692064807E-011
   6.9666666666666661E-005    -5.2779595162187083E-011
   6.9866666666666666E-005    -5.5373159645638081E-011
   7.0066666666666658E-005    -5.2604333524232924E-011
   7.0266666666666662E-005    -4.3873798019951934E-011
   7.0466666666666654E-005    -2.9107158268050583E-011
   7.0666666666666659E-005    -8.8461877783446024E-012
   7.0866666666666664E-005     1.5709956335119912E-011
   7.1066666666666655E-005     4.2725494335765691E-011
   7.1266666666666660E-005     6.9817991791620048E-011
   7.1466666666666665E-005     9.4218757335117322E-011
   7.1666666666666656E-005     1.1299749845877412E-010
   7.1866666666666661E-005     1.2333792810389883E-010
   7.2066666666666666E-005     1.2284328155932093E-010
   7.2266666666666657E-005     1.0984495039474851E-010
   7.2466666666666662E-005     8.3683116108133888E-011
   7.2666666666666667E-005     4.4926412073613637E-011
   7.2866666666666658E-005    -4.5005089491140156E-012
   7.3066666666666663E-005    -6.1307920453166124E-011
   7.3266666666666654E-005    -1.2096856049990910E-010
   7.3466666666666659E-005    -1.7798834985096370E-010
   7.3666666666666664E-005    -2.2631359576149604E-010
   7.3866666666666655E-005    -2.5985267637962876E-010
   7.4066666666666660E-005    -2.7307635198012504E-010
   7.4266666666666665E-005    -2.6164697791955759E-010
   7.4466666666666656E-005    -2.2301807038456033E-010
   7.4666666666666661E-005    -1.5694020326644227E-010
   7.4866666666666666E-005    -6.5809804224682152E-011
   7.5066666666666657E-005     4.5194862821767901E-011
   7.5266666666666662E-005     1.6823291795165208E-010
   7.5466666666666653E-005     2.9319757381986440E-010