  -3.3333333333333335E-005     0.0000000000000000     
  -3.3133333333333337E-005     0.0000000000000000     
  -3.2933333333333332E-005     0.0000000000000000     
  -3.2733333333333334E-005     0.0000000000000000     
  -3.2533333333333336E-005     0.0000000000000000     
  -3.2333333333333338E-005     0.0000000000000000     
  -3.2133333333333333E-005     0.0000000000000000     
  -3.1933333333333335E-005     0.0000000000000000     
  -3.1733333333333337E-005     0.0000000000000000     
  -3.1533333333333332E-005     0.0000000000000000     
  -3.1333333333333334E-005     0.0000000000000000     
  -3.1133333333333336E-005     0.0000000000000000     
  -3.0933333333333338E-005     0.0000000000000000     
  -3.0733333333333333E-005     0.0000000000000000     
  -3.0533333333333335E-005     0.0000000000000000     
  -3.0333333333333337E-005     0.0000000000000000     
  -3.0133333333333335E-005     0.0000000000000000     
  -2.9933333333333334E-005     0.0000000000000000     
  -2.9733333333333336E-005     0.0000000000000000     
  -2.9533333333333334E-005     3.1335066907254141E-042
  -2.9333333333333336E-005     1.0489907141051227E-041
  -2.9133333333333334E-005    -6.4731930963889603E-042
  -2.8933333333333336E-005    -3.2058832756794794E-041
  -2.8733333333333335E-005    -4.0119159035000482E-040
  -2.8533333333333333E-005    -3.0773589535742761E-039
  -2.8333333333333335E-005    -1.7109419587629009E-038
  -2.8133333333333337E-005    -5.1250195474139496E-038
  -2.7933333333333336E-005    -1.0372614415963602E-037
  -2.7733333333333334E-005    -2.1211643878827720E-037
  -2.7533333333333336E-005    -2.1491429844018000E-037
  -2.7333333333333335E-005     5.6170719696149863E-037
  -2.7133333333333333E-005     3.9001109133752511E-036
  -2.6933333333333335E-005     1.2832446728403731E-035
  -2.6733333333333337E-005     2.8920428822065413E-035
  -2.6533333333333336E-005     4.1602536324111869E-035
  -2.6333333333333334E-005     3.6292461215164636E-036
  -2.6133333333333336E-005    -2.0385018143417392E-034
  -2.5933333333333335E-005    -7.7703916216776189E-034
  -2.5733333333333333E-005    -1.8483778748642273E-033
  -2.5533333333333335E-005    -2.9742765776493808E-033
  -2.5333333333333337E-005    -1.9966408452735091E-033
  -2.5133333333333336E-005     6.6618247624741776E-033
  -2.4933333333333334E-005     3.3099551369725595E-032
  -2.4733333333333336E-005     8.8955616563870158E-032
  -2.4533333333333334E-005     1.7366099968449237E-031
  -2.4333333333333333E-005     2.4138455276129941E-031
  -2.4133333333333335E-005     1.4523065037514507E-031
  -2.3933333333333337E-005    -4.2359382660849978E-031
  -2.3733333333333335E-005    -1.9376786773904060E-030
  -2.3533333333333334E-005    -4.8427268794469545E-030
  -2.3333333333333336E-005    -8.9785600937009599E-030
  -2.3133333333333338E-005    -1.2443527511635510E-029
  -2.2933333333333336E-005    -9.9906426037746482E-030
  -2.2733333333333335E-005     8.3122176622962959E-030
  -2.2533333333333337E-005     5.6340656961375686E-029
  -2.2333333333333335E-005     1.4602074181251537E-028
  -2.2133333333333334E-005     2.7267311728605036E-028
  -2.1933333333333336E-005     3.8979031947068880E-028
  -2.1733333333333338E-005     3.7773389452069698E-028
  -2.1533333333333336E-005     2.3155984208898459E-029
  -2.1333333333333335E-005    -9.5689789761729449E-028
  -2.1133333333333337E-005    -2.7970909488936201E-027
  -2.0933333333333335E-005    -5.4247253362234818E-027
  -2.0733333333333334E-005    -8.0530657279181819E-027
  -2.0533333333333336E-005    -8.7233610001173830E-027
  -2.0333333333333337E-005    -4.0628500223045405E-027
  -2.0133333333333336E-005     1.0269922864947052E-026
  -1.9933333333333334E-005     3.7847386015490729E-026
  -1.9733333333333336E-005     7.7956956228357920E-026
  -1.9533333333333335E-005     1.2042452527238316E-025
  -1.9333333333333333E-005     1.4016351700177449E-025
  -1.9133333333333335E-005     9.4719795101513642E-026
  -1.8933333333333337E-005    -6.9925612666130063E-026
  -1.8733333333333336E-005    -3.9908837630435326E-025
  -1.8533333333333334E-005    -8.9032170063938569E-025
  -1.8333333333333336E-005    -1.4379296558245148E-024
  -1.8133333333333335E-005    -1.7760956649488140E-024
  -1.7933333333333337E-005    -1.4531909958241206E-024
  -1.7733333333333335E-005     1.1302007835903195E-025
  -1.7533333333333337E-005     3.4430754282008435E-024
  -1.7333333333333336E-005     8.6290303918330843E-024
  -1.7133333333333334E-005     1.4814784511295540E-023
  -1.6933333333333336E-005     1.9651512985838067E-023
  -1.6733333333333335E-005     1.8998466513302442E-023
  -1.6533333333333337E-005     7.2757970775318890E-024
  -1.6333333333333335E-005    -2.1069967234184797E-023
  -1.6133333333333337E-005    -6.8660436441678365E-023
  -1.5933333333333336E-005    -1.3093439671703853E-022
  -1.5733333333333334E-005    -1.9140430155971961E-022
  -1.5533333333333336E-005    -2.1828938370694549E-022
  -1.5333333333333334E-005    -1.6540002582817096E-022
  -1.5133333333333336E-005     1.9346522470680706E-023
  -1.4933333333333335E-005     3.7504630474978082E-022
  -1.4733333333333337E-005     8.9827753346748178E-022
  -1.4533333333333335E-005     1.5072023231239574E-021
  -1.4333333333333337E-005     2.0099197777451250E-021
  -1.4133333333333336E-005     2.0943424795994523E-021
  -1.3933333333333334E-005     1.3611877201956961E-021
  -1.3733333333333336E-005    -5.7992819473383601E-022
  -1.3533333333333335E-005    -3.9425378798712402E-021
  -1.3333333333333337E-005    -8.5378541414306436E-021
  -1.3133333333333335E-005    -1.3539965769160271E-020
  -1.2933333333333337E-005    -1.7328203437315686E-020
  -1.2733333333333336E-005    -1.7523614213851261E-020
  -1.2533333333333338E-005    -1.1341639679367214E-020
  -1.2333333333333336E-005     3.6556558796160907E-021
  -1.2133333333333335E-005     2.8420706893565473E-020
  -1.1933333333333337E-005     6.1061026257980075E-020
  -1.1733333333333335E-005     9.5613339156049024E-020
  -1.1533333333333337E-005     1.2147871766761620E-019
  -1.1333333333333336E-005     1.2413211092143034E-019
  -1.1133333333333337E-005     8.7634661131239532E-020
  -1.0933333333333336E-005    -8.4698080659630579E-022
  -1.0733333333333334E-005    -1.4489314932924558E-019
  -1.0533333333333336E-005    -3.3221382963771009E-019
  -1.0333333333333335E-005    -5.2952685811475129E-019
  -1.0133333333333337E-005    -6.8146493478248769E-019
  -9.9333333333333354E-006    -7.1604838444329978E-019
  -9.7333333333333373E-006    -5.5840351189982595E-019
  -9.5333333333333358E-006    -1.5254236739934489E-019
  -9.3333333333333343E-006     5.1172207070909733E-019
  -9.1333333333333362E-006     1.3727813978242433E-018
  -8.9333333333333348E-006     2.2808591310191852E-018
  -8.7333333333333367E-006     3.0010106194686303E-018
  -8.5333333333333352E-006     3.2435904849932747E-018
  -8.3333333333333371E-006     2.7252169420597417E-018
  -8.1333333333333356E-006     1.2549122189969425E-018
  -7.9333333333333376E-006    -1.1702709481484563E-018
  -7.7333333333333361E-006    -4.2856888107120526E-018
  -7.5333333333333346E-006    -7.5270454702684998E-018
  -7.3333333333333365E-006    -1.0075519864343192E-017
  -7.1333333333333351E-006    -1.0997665496981483E-017
  -6.9333333333333370E-006    -9.4748216026946870E-018
  -6.7333333333333355E-006    -5.0860710023064079E-018
  -6.5333333333333374E-006     1.9228766164282282E-018
  -6.3333333333333359E-006     1.0475277046782312E-017
  -6.1333333333333379E-006     1.8696297287611677E-017
  -5.9333333333333364E-006     2.4209551354684040E-017
  -5.7333333333333349E-006     2.4704106834204680E-017
  -5.5333333333333368E-006     1.8693159979630930E-017
  -5.3333333333333354E-006     6.2909046311391325E-018
  -5.1333333333333373E-006    -1.0242150521170892E-017
  -4.9333333333333358E-006    -2.6460434769147697E-017
  -4.7333333333333377E-006    -3.6421091110451599E-017
  -4.5333333333333362E-006    -3.4168238220974277E-017
  -4.3333333333333348E-006    -1.5848579251663746E-017
  -4.1333333333333367E-006     1.7985188457460850E-017
  -3.9333333333333352E-006     6.0576429713902415E-017
  -3.7333333333333371E-006     9.8493624782744502E-017
  -3.5333333333333356E-006     1.1322522145367135E-016
  -3.3333333333333376E-006     8.5225078643734771E-017
  -3.1333333333333361E-006     1.7093682512460736E-019
  -2.9333333333333346E-006    -1.4360685101352514E-016
  -2.7333333333333365E-006    -3.2837914072081828E-016
  -2.5333333333333384E-006    -5.1337514616410188E-016
  -2.3333333333333336E-006    -6.3672398122925364E-016
  -2.1333333333333355E-006    -6.2479273998191294E-016
  -1.9333333333333374E-006    -4.0925925762586602E-016
  -1.7333333333333393E-006     4.9897044645492993E-017
  -1.5333333333333345E-006     7.3976320107850502E-016
  -1.3333333333333364E-006     1.5746655374202288E-015
  -1.1333333333333383E-006     2.3887337068939448E-015
  -9.3333333333333343E-007     2.9478726190341505E-015
  -7.3333333333333535E-007     2.9854077448973682E-015
  -5.3333333333333726E-007     2.2607436629047695E-015
  -3.3333333333333918E-007     6.3387720540385100E-016
  -1.3333333333333432E-007    -1.8582374640175775E-015
   6.6666666666663770E-008    -4.9429210003013000E-015
   2.6666666666666185E-007    -8.0921878776185621E-015
   4.6666666666666672E-007    -1.0561119281828550E-014
   6.6666666666666480E-007    -1.1494330052376073E-014
   8.6666666666666289E-007    -1.0096652774825192E-014
   1.0666666666666610E-006    -5.8467361915455575E-015
   1.2666666666666658E-006     1.2852235420369810E-015
   1.4666666666666639E-006     1.0667413428535275E-014
   1.6666666666666620E-006     2.0939863938824448E-014
   1.8666666666666669E-006     3.0098760999773586E-014
   2.0666666666666649E-006     3.5756458163355118E-014
   2.2666666666666630E-006     3.5567136347938151E-014
   2.4666666666666611E-006     2.7766186964034607E-014
   2.6666666666666660E-006     1.1730411350657192E-014
   2.8666666666666641E-006    -1.1563352943459547E-014
   3.0666666666666622E-006    -3.9312172993359216E-014
   3.2666666666666602E-006    -6.7004412238475295E-014
   3.4666666666666651E-006    -8.8941041186211355E-014
   3.6666666666666632E-006    -9.9144707287585805E-014
   3.8666666666666613E-006    -9.2549500994512294E-014
   4.0666666666666661E-006    -6.6277313055327189E-014
   4.2666666666666642E-006    -2.0743327333851191E-014
   4.4666666666666623E-006     3.9684929198820429E-014
   4.6666666666666604E-006     1.0671234000766858E-013
   4.8666666666666652E-006     1.6896188345909502E-013
   5.0666666666666633E-006     2.1362840043413351E-013
   5.2666666666666614E-006     2.2875070743756450E-013
   5.4666666666666663E-006     2.0574326441147013E-013
   5.6666666666666644E-006     1.4170614222826084E-013
   5.8666666666666624E-006     4.0993504949468376E-014
   6.0666666666666605E-006    -8.4412663822315294E-014
   6.2666666666666654E-006    -2.1599988989171196E-013
   6.4666666666666635E-006    -3.3130290969945773E-013
   6.6666666666666616E-006    -4.0765952828290328E-013
   6.8666666666666664E-006    -4.2654564748634165E-013
   7.0666666666666645E-006    -3.7767806980246662E-013
   7.2666666666666626E-006    -2.6200416899774461E-013
   7.4666666666666607E-006    -9.2808755188269570E-014
   7.6666666666666655E-006     1.0553750416909537E-013
   7.8666666666666636E-006     3.0122384320449317E-013
   8.0666666666666617E-006     4.6056667980178176E-013
   8.2666666666666598E-006     5.5454920763065920E-013
   8.4666666666666647E-006     5.6505090368888446E-013
   8.6666666666666627E-006     4.8938683977597735E-013
   8.8666666666666608E-006     3.4196961329174709E-013
   9.0666666666666657E-006     1.5238905413710006E-013
   9.2666666666666638E-006    -4.0094347853653361E-014
   9.4666666666666619E-006    -1.9484532828640791E-013
   9.6666666666666599E-006    -2.7941038407504589E-013
   9.8666666666666648E-006    -2.7831229649845633E-013
   1.0066666666666663E-005    -1.9894275448517372E-013
   1.0266666666666661E-005    -7.2758565665476380E-014
   1.0466666666666666E-005     4.9226034206197894E-014
   1.0666666666666664E-005     1.0653031170462505E-013
   1.0866666666666662E-005     4.3494265284359499E-014
   1.1066666666666660E-005    -1.7477946512304961E-013
   1.1266666666666665E-005    -5.4815222342923462E-013
   1.1466666666666663E-005    -1.0323543055390320E-012
   1.1666666666666661E-005    -1.5380553762576859E-012
   1.1866666666666666E-005    -1.9398608481359879E-012
   1.2066666666666664E-005    -2.0952242609373299E-012
   1.2266666666666662E-005    -1.8712282418791161E-012
   1.2466666666666660E-005    -1.1752749804685396E-012
   1.2666666666666665E-005     1.5701601656515511E-014
   1.2866666666666663E-005     1.6334598954246071E-012
   1.3066666666666661E-005     3.5096007071094654E-012
   1.3266666666666666E-005     5.3835710522797567E-012
   1.3466666666666664E-005     6.9289770327435371E-012
   1.3666666666666662E-005     7.7966072299056304E-012
   1.3866666666666660E-005     7.6694373204894941E-012
   1.4066666666666665E-005     6.3221983351737008E-012
   1.4266666666666663E-005     3.6763461862184953E-012
   1.4466666666666661E-005    -1.5914668173269254E-013
   1.4666666666666666E-005    -4.8697060807159142E-012
   1.4866666666666664E-005    -9.9457817876195182E-012
   1.5066666666666662E-005    -1.4724584391470390E-011
   1.5266666666666661E-005    -1.8460972797151435E-011
   1.5466666666666665E-005    -2.0421153775578322E-011
   1.5666666666666663E-005    -1.9988953968963548E-011
   1.5866666666666662E-005    -1.6771551483765351E-011
   1.6066666666666660E-005    -1.0690251005191541E-011
   1.6266666666666665E-005    -2.0421747359136492E-012
   1.6466666666666663E-005     8.4791407998155947E-012
   1.6666666666666661E-005     1.9812505225026759E-011
   1.6866666666666666E-005     3.0610461344330887E-011
   1.7066666666666664E-005     3.9370506164600092E-011
   1.7266666666666662E-005     4.4606954466428685E-011
   1.7466666666666660E-005     4.5047968060538575E-011
   1.7666666666666665E-005     3.9836738315154972E-011
   1.7866666666666663E-005     2.8711835022406917E-011
   1.8066666666666661E-005     1.2139941276368566E-011
   1.8266666666666666E-005    -8.6246488474552372E-012
   1.8466666666666664E-005    -3.1574679896531364E-011
   1.8666666666666662E-005    -5.4091344385767535E-011
   1.8866666666666660E-005    -7.3192921509735894E-011
   1.9066666666666665E-005    -8.5876482542036634E-011
   1.9266666666666663E-005    -8.9522323884865327E-011
   1.9466666666666661E-005    -8.2315523913701973E-011
   1.9666666666666666E-005    -6.3627299831495163E-011
   1.9866666666666664E-005    -3.4293087901208234E-011
   2.0066666666666662E-005     3.2728065017238251E-012
   2.0266666666666660E-005     4.5172730708606013E-011
   2.0466666666666665E-005     8.6354950198890737E-011
   2.0666666666666663E-005     1.2116778821455291E-010
   2.0866666666666661E-005     1.4409265631472475E-010
   2.1066666666666659E-005     1.5057266608882928E-010
   2.1266666666666664E-005     1.3782331810078600E-010
   2.1466666666666662E-005     1.0549405948846437E-010
   2.1666666666666660E-005     5.6051580947069557E-011
   2.1866666666666665E-005    -5.2210939358719625E-012
   2.2066666666666663E-005    -7.0669480713992226E-011
   2.2266666666666661E-005    -1.3115211753436739E-010
   2.2466666666666659E-005    -1.7728644408517707E-010
   2.2666666666666664E-005    -2.0090444710850042E-010
   2.2866666666666662E-005    -1.9650768252465044E-010
   2.3066666666666660E-005    -1.6247909974800218E-010
   2.3266666666666665E-005    -1.0181387638184986E-010
   2.3466666666666663E-005    -2.2178580445149776E-011
   2.3666666666666661E-005     6.4805726737902772E-011
   2.3866666666666660E-005     1.4504226994637008E-010
   2.4066666666666664E-005     2.0405210405222395E-010
   2.4266666666666662E-005     2.2940889800751828E-010
   2.4466666666666661E-005     2.1314414414193400E-010
   2.4666666666666665E-005     1.5370529352995140E-010
   2.4866666666666663E-005     5.7069434231606739E-011
   2.5066666666666662E-005    -6.3293864824705846E-011
   2.5266666666666660E-005    -1.8775997696362741E-010
   2.5466666666666665E-005    -2.9313276815348724E-010
   2.5666666666666663E-005    -3.5619929768813954E-010
   2.5866666666666661E-005    -3.5777833409431845E-010
   2.6066666666666666E-005    -2.8663921303481157E-010
   2.6266666666666664E-005    -1.4261002088812565E-010
   2.6466666666666662E-005     6.1756060895337156E-011
   2.6666666666666660E-005     3.0142168550962870E-010
   2.6866666666666665E-005     5.4121847748490810E-010
   2.7066666666666663E-005     7.4019003866048034E-010
   2.7266666666666661E-005     8.5745893907812932E-010
   2.7466666666666666E-005     8.5884888118839690E-010
   2.7666666666666664E-005     7.2328331531345864E-010
   2.7866666666666662E-005     4.4791110503261777E-010
   2.8066666666666667E-005     5.1005084512602526E-011
   2.8266666666666658E-005    -4.2806599009343261E-010
   2.8466666666666663E-005    -9.3209454546810556E-010
   2.8666666666666668E-005    -1.3923480302311612E-009
   2.8866666666666659E-005    -1.7372752186557724E-009
   2.9066666666666664E-005    -1.9025152104852760E-009
   2.9266666666666669E-005    -1.8408337175283578E-009
   2.9466666666666660E-005    -1.5305163029533601E-009
   2.9666666666666665E-005    -9.8087875615493476E-010
   2.9866666666666656E-005    -2.3389331256513145E-010
   3.0066666666666661E-005     6.3855507982520156E-010
   3.0266666666666666E-005     1.5416596611019588E-009
   3.0466666666666657E-005     2.3681868751591211E-009
   3.0666666666666662E-005     3.0112040016887357E-009
   3.0866666666666667E-005     3.3774132935879499E-009
   3.1066666666666658E-005     3.3993446750410395E-009
   3.1266666666666663E-005     3.0447891988661984E-009
   3.1466666666666668E-005     2.3222309568590896E-009
   3.1666666666666659E-005     1.2815687266621741E-009
   3.1866666666666664E-005     1.0073510861081544E-011
   3.2066666666666656E-005    -1.3758673146356216E-009
   3.2266666666666660E-005    -2.7421385897528702E-009
   3.2466666666666665E-005    -3.9500132578574837E-009
   3.2666666666666657E-005    -4.8694933030906219E-009
   3.2866666666666661E-005    -5.3914989189408523E-009
   3.3066666666666666E-005    -5.4378443902826218E-009
   3.3266666666666658E-005    -4.9683530265779420E-009
   3.3466666666666662E-005    -3.9849147383940587E-009
   3.3666666666666667E-005    -2.5326267270962824E-009
   3.3866666666666659E-005    -6.9838638718308332E-010
   3.4066666666666664E-005     1.3926844435494727E-009
   3.4266666666666668E-005     3.5827299569927521E-009
   3.4466666666666660E-005     5.6885658073122463E-009
   3.4666666666666665E-005     7.5112478311050547E-009
   3.4866666666666656E-005     8.8481969266985157E-009
   3.5066666666666661E-005     9.5082302378809897E-009
   3.5266666666666666E-005     9.3295054080562041E-009
   3.5466666666666657E-005     8.1997915392759321E-009
   3.5666666666666662E-005     6.0776667790195361E-009
   3.5866666666666667E-005     3.0123353304983917E-009
   3.6066666666666658E-005    -8.4104060528501638E-010
   3.6266666666666663E-005    -5.2140534400733414E-009
   3.6466666666666668E-005    -9.7293543720575538E-009
   3.6666666666666659E-005    -1.3919396010947420E-008
   3.6866666666666664E-005    -1.7261071981687821E-008
   3.7066666666666669E-005    -1.9225673635030032E-008
   3.7266666666666660E-005    -1.9341174596561103E-008
   3.7466666666666665E-005    -1.7261250771851258E-008
   3.7666666666666656E-005    -1.2833176954085917E-008
   3.7866666666666661E-005    -6.1551993528137229E-009
   3.8066666666666666E-005     2.3865777873180932E-009
   3.8266666666666657E-005     1.2110795873545660E-008
   3.8466666666666662E-005     2.2069672991588526E-008
   3.8666666666666667E-005     3.1117047920162296E-008
   3.8866666666666658E-005     3.8013867198789474E-008
   3.9066666666666663E-005     4.1564013509036515E-008
   3.9266666666666668E-005     4.0768217998122460E-008
   3.9466666666666659E-005     3.4979447928020929E-008
   3.9666666666666664E-005     2.4040359397942336E-008
   3.9866666666666655E-005     8.3827967268659092E-009
   4.0066666666666660E-005    -1.0928829039534667E-008
   4.0266666666666665E-005    -3.2224042465864929E-008
   4.0466666666666656E-005    -5.3329694521369455E-008
   4.0666666666666661E-005    -7.1748783251338892E-008
   4.0866666666666666E-005    -8.4903988009288047E-008
   4.1066666666666657E-005    -9.0425895276732620E-008
   4.1266666666666662E-005    -8.6458291377866668E-008
   4.1466666666666667E-005    -7.1947093020229339E-008
   4.1666666666666658E-005    -4.6877639306919138E-008
   4.1866666666666663E-005    -1.2426358195921172E-008
   4.2066666666666668E-005     2.9001327297192638E-008
   4.2266666666666660E-005     7.3865599173551514E-008
   4.2466666666666664E-005     1.1772553497991117E-007
   4.2666666666666656E-005     1.5560281921936017E-007
   4.2866666666666661E-005     1.8245215171687849E-007
   4.3066666666666665E-005     1.9370060466260477E-007
   4.3266666666666657E-005     1.8580636119743822E-007
   4.3466666666666662E-005     1.5677921649342225E-007
   4.3666666666666666E-005     1.0660306309572018E-007
   4.3866666666666658E-005     3.7503652977535238E-008
   4.4066666666666663E-005    -4.5985535306219688E-008
   4.4266666666666667E-005    -1.3719074148136998E-007
   4.4466666666666659E-005    -2.2771004415400379E-007
   4.4666666666666664E-005    -3.0805747291573845E-007
   4.4866666666666655E-005    -3.6850128210125500E-007
   4.5066666666666660E-005    -4.0003430545380469E-007
   4.5266666666666665E-005    -3.9539328801072160E-007
   4.5466666666666656E-005    -3.5002914344402836E-007
   4.5666666666666661E-005    -2.6292370160775091E-007
   4.5866666666666666E-005    -1.3715072178442591E-007
   4.6066666666666657E-005     1.9907439551364982E-008
   4.6266666666666662E-005     1.9675115841741826E-007
   4.6466666666666667E-005     3.7839471812743537E-007
   4.6666666666666658E-005     5.4742697587375362E-007
   4.6866666666666663E-005     6.8544765553280342E-007
   4.7066666666666668E-005     7.7478036606017990E-007
   4.7266666666666659E-005     8.0032345281356470E-007
   4.7466666666666664E-005     7.5137024639796729E-007
   4.7666666666666655E-005     6.2321102770484915E-007
   4.7866666666666660E-005     4.1833127192549950E-007
   4.8066666666666665E-005     1.4703739965371521E-007
   4.8266666666666656E-005    -1.7261939874274668E-007
   4.8466666666666661E-005    -5.1569560473577997E-007
   4.8666666666666666E-005    -8.5198887060023478E-007
   4.8866666666666657E-005    -1.1483789537458793E-006
   4.9066666666666662E-005    -1.3717237585034477E-006
   4.9266666666666667E-005    -1.4920843969934684E-006
   4.9466666666666658E-005    -1.4859973904449361E-006
   4.9666666666666663E-005    -1.3394737211252769E-006
   4.9866666666666655E-005    -1.0504007555491336E-006
   5.0066666666666659E-005    -6.3004568559724073E-007
   5.0266666666666664E-005    -1.0341817014399752E-007
   5.0466666666666656E-005     4.9166145409619862E-007
   5.0666666666666660E-005     1.1068318273765645E-006
   5.0866666666666665E-005     1.6867111673703749E-006
   5.1066666666666657E-005     2.1734517230376167E-006
   5.1266666666666661E-005     2.5119887287115814E-006
   5.1466666666666666E-005     2.6555418744803819E-006
   5.1666666666666658E-005     2.5708650505096325E-006
   5.1866666666666662E-005     2.2427109860028867E-006
   5.2066666666666667E-005     1.6770111513321175E-006
   5.2266666666666659E-005     9.0234592252031588E-007
   5.2466666666666664E-005    -3.0591259168628390E-008
   5.2666666666666655E-005    -1.0516670317568332E-006
   5.2866666666666660E-005    -2.0760540888650995E-006
   5.3066666666666665E-005    -3.0107834840686650E-006
   5.3266666666666656E-005    -3.7626403584807918E-006
   5.3466666666666661E-005    -4.2467721692410960E-006
   5.3666666666666666E-005    -4.3952646794097992E-006
   5.3866666666666657E-005    -4.1648691414767994E-006
   5.4066666666666662E-005    -3.5430937509904047E-006
   5.4266666666666667E-005    -2.5519514466031350E-006
   5.4466666666666658E-005    -1.2488207657961236E-006
   5.4666666666666663E-005     2.7588687009917564E-007
   5.4866666666666668E-005     1.9042946430798596E-006
   5.5066666666666659E-005     3.4996000038553466E-006
   5.5266666666666664E-005     4.9170234492065858E-006
   5.5466666666666655E-005     6.0163417993238266E-006
   5.5666666666666660E-005     6.6749645103830493E-006
   5.5866666666666665E-005     6.8003903500825511E-006
   5.6066666666666656E-005     6.3408425374162023E-006
   5.6266666666666661E-005     5.2929769078880837E-006
   5.6466666666666666E-005     3.7057341674374458E-006
   5.6666666666666657E-005     1.6797036931995702E-006
   5.6866666666666662E-005    -6.3825416864482826E-007
   5.7066666666666667E-005    -3.0649743644125055E-006
   5.7266666666666658E-005    -5.3949401674973137E-006
   5.7466666666666663E-005    -7.4172195465925659E-006
   5.7666666666666654E-005    -8.9340303674020299E-006
   5.7866666666666659E-005    -9.7793401382262131E-006
   5.8066666666666664E-005    -9.8358113118710683E-006
   5.8266666666666655E-005    -9.0484133369322713E-006
   5.8466666666666660E-005    -7.4332647073257659E-006
   5.8666666666666665E-005    -5.0805847581890155E-006
   5.8866666666666656E-005    -2.1511254767240574E-006
   5.9066666666666661E-005     1.1339805303786245E-006
   5.9266666666666666E-005     4.5094283127861641E-006
   5.9466666666666657E-005     7.6868730411752867E-006
   5.9666666666666662E-005     1.0379344016035993E-005
   5.9866666666666667E-005     1.2326895112345173E-005
   6.0066666666666659E-005     1.3321223113478668E-005
   6.0266666666666663E-005     1.3226952783635271E-005
   6.0466666666666655E-005     1.1997472860900101E-005
   6.0666666666666660E-005     9.6835938357176195E-006
   6.0866666666666664E-005     6.4338820506016105E-006
   6.1066666666666656E-005     2.4862112799119338E-006
   6.1266666666666661E-005    -1.8491181445984019E-006
   6.1466666666666665E-005    -6.2135690254480507E-006
   6.1666666666666657E-005    -1.0230010500335795E-005
   6.1866666666666662E-005    -1.3535375794118949E-005
   6.2066666666666666E-005    -1.5813513369197697E-005
   6.2266666666666658E-005    -1.6825256485299395E-005
   6.2466666666666663E-005    -1.6432881312716586E-005
   6.2666666666666668E-005    -1.4616489731856859E-005
   6.2866666666666659E-005    -1.1480529577066770E-005
   6.3066666666666664E-005    -7.2494407945415276E-006
   6.3266666666666655E-005    -2.2524047894940605E-006
   6.3466666666666660E-005     3.1018521343807626E-006
   6.3666666666666665E-005     8.3583161536072817E-006
   6.3866666666666656E-005     1.3054304636957447E-005
   6.4066666666666661E-005     1.6760184546494110E-005
   6.4266666666666666E-005     1.9118611702635192E-005
   6.4466666666666657E-005     1.9878708330943865E-005
   6.4666666666666662E-005     1.8921969346747331E-005
   6.4866666666666667E-005     1.6277286498481697E-005
   6.5066666666666658E-005     1.2123385694141625E-005
   6.5266666666666663E-005     6.7780545834739925E-006
   6.5466666666666654E-005     6.7469995316482521E-007
   6.5666666666666659E-005    -5.6720987451985270E-006
   6.5866666666666664E-005    -1.1709304413527896E-005
   6.6066666666666655E-005    -1.6892878963691155E-005
   6.6266666666666660E-005    -2.0735919135635123E-005
   6.6466666666666665E-005    -2.2853237180167243E-005
   6.6666666666666656E-005    -2.2998342558500835E-005
   6.6866666666666661E-005    -2.1089355322994790E-005
   6.7066666666666666E-005    -1.7221273464820219E-005
   6.7266666666666657E-005    -1.1663126348468942E-005
   6.7466666666666662E-005    -4.8399058266995702E-006
   6.7666666666666667E-005     2.6995593008433032E-006
   6.7866666666666658E-005     1.0326308477374628E-005
   6.8066666666666663E-005     1.7382995118273229E-005
   6.8266666666666655E-005     2.3239356186918250E-005
   6.8466666666666659E-005     2.7346670604045200E-005
   6.8666666666666664E-005     2.9286464975172206E-005
   6.8866666666666656E-005     2.8809158628546437E-005
   6.9066666666666660E-005     2.5859126272845832E-005
   6.9266666666666665E-005     2.0583805607455551E-005
   6.9466666666666657E-005     1.3325867495788176E-005
   6.9666666666666661E-005     4.5988488920957721E-006
   6.9866666666666666E-005    -4.9518009845144445E-006
   7.0066666666666658E-005    -1.4599103226701498E-005
   7.0266666666666662E-005    -2.3592157461086020E-005
   7.0466666666666654E-005    -3.1216105267512759E-005
   7.0666666666666659E-005    -3.6849436817659788E-005
   7.0866666666666664E-005    -4.0013714508033066E-005
   7.1066666666666655E-005    -4.0411679588596047E-005
   7.1266666666666660E-005    -3.7950470626316537E-005
   7.1466666666666665E-005    -3.2748236278600071E-005
   7.1666666666666656E-005    -2.5123698402114617E-005
   7.1866666666666661E-005    -1.5569856277981811E-005
   7.2066666666666666E-005    -4.7142629464305637E-006
   7.2266666666666657E-005     6.7304914343417069E-006
   7.2466666666666662E-005     1.8021720495382247E-005
   7.2666666666666667E-005     2.8442242221582781E-005
   7.2866666666666658E-005     3.7351954005563873E-005
   7.3066666666666663E-005     4.4231212278444548E-005
   7.3266666666666654E-005     4.8712650154277024E-005
   7.3466666666666659E-005     5.0599265800290423E-005
   7.3666666666666664E-005     4.9867907938210904E-005
   7.3866666666666655E-005     4.6658586403589931E-005
   7.4066666666666660E-005     4.1251387717465672E-005
   7.4266666666666665E-005     3.4033683690539205E-005
   7.4466666666666656E-005     2.5461239146117127E-005
   7.4666666666666661E-005     1.6017058690854673E-005
   7.4866666666666666E-005     6.1719323833475202E-006
   7.5066666666666657E-005    -3.6497895360161558E-006
   7.5266666666666662E-005    -1.3096332062782710E-005
   7.5466666666666653E-005    -2.1904612593573310E-005