  -3.3333333333333335E-005     0.0000000000000000     
  -3.3133333333333337E-005     0.0000000000000000     
  -3.2933333333333332E-005     0.0000000000000000     
  -3.2733333333333334E-005     0.0000000000000000     
  -3.2533333333333336E-005     0.0000000000000000     
  -3.2333333333333338E-005     0.0000000000000000     
  -3.2133333333333333E-005     0.0000000000000000     
  -3.1933333333333335E-005     0.0000000000000000     
  -3.1733333333333337E-005     0.0000000000000000     
  -3.1533333333333332E-005     0.0000000000000000     
  -3.1333333333333334E-005     0.0000000000000000     
  -3.1133333333333336E-005     0.0000000000000000     
  -3.0933333333333338E-005     0.0000000000000000     
  -3.0733333333333333E-005     0.0000000000000000     
  -3.0533333333333335E-005     0.0000000000000000     
  -3.0333333333333337E-005     0.0000000000000000     
  -3.0133333333333335E-005     0.0000000000000000     
  -2.9933333333333334E-005     0.0000000000000000     
  -2.9733333333333336E-005     0.0000000000000000     
  -2.9533333333333334E-005     0.0000000000000000     
  -2.9333333333333336E-005     0.0000000000000000     
  -2.9133333333333334E-005     0.0000000000000000     
  -2.8933333333333336E-005     0.0000000000000000     
  -2.8733333333333335E-005     0.0000000000000000     
  -2.8533333333333333E-005     0.0000000000000000     
  -2.8333333333333335E-005     0.0000000000000000     
  -2.8133333333333337E-005     0.0000000000000000     
  -2.7933333333333336E-005     0.0000000000000000     
  -2.7733333333333334E-005     0.0000000000000000     
  -2.7533333333333336E-005     0.0000000000000000     
  -2.7333333333333335E-005     0.0000000000000000     
  -2.7133333333333333E-005     0.0000000000000000     
  -2.6933333333333335E-005     0.0000000000000000     
  -2.6733333333333337E-005     0.0000000000000000     
  -2.6533333333333336E-005     0.0000000000000000     
  -2.6333333333333334E-005     0.0000000000000000     
  -2.6133333333333336E-005     0.0000000000000000     
  -2.5933333333333335E-005     0.0000000000000000     
  -2.5733333333333333E-005     0.0000000000000000     
  -2.5533333333333335E-005     0.0000000000000000     
  -2.5333333333333337E-005     0.0000000000000000     
  -2.5133333333333336E-005     0.0000000000000000     
  -2.4933333333333334E-005     0.0000000000000000     
  -2.4733333333333336E-005     0.0000000000000000     
  -2.4533333333333334E-005     0.0000000000000000     
  -2.4333333333333333E-005     0.0000000000000000     
  -2.4133333333333335E-005     0.0000000000000000     
  -2.3933333333333337E-005     0.0000000000000000     
  -2.3733333333333335E-005     0.0000000000000000     
  -2.3533333333333334E-005     0.0000000000000000     
  -2.3333333333333336E-005     0.0000000000000000     
  -2.3133333333333338E-005     0.0000000000000000     
  -2.2933333333333336E-005     0.0000000000000000     
  -2.2733333333333335E-005     0.0000000000000000     
  -2.2533333333333337E-005     0.0000000000000000     
  -2.2333333333333335E-005     0.0000000000000000     
  -2.2133333333333334E-005     0.0000000000000000     
  -2.1933333333333336E-005     0.0000000000000000     
  -2.1733333333333338E-005     0.0000000000000000     
  -2.1533333333333336E-005     0.0000000000000000     
  -2.1333333333333335E-005     0.0000000000000000     
  -2.1133333333333337E-005     0.0000000000000000     
  -2.0933333333333335E-005     0.0000000000000000     
  -2.0733333333333334E-005     0.0000000000000000     
  -2.0533333333333336E-005     0.0000000000000000     
  -2.0333333333333337E-005     0.0000000000000000     
  -2.0133333333333336E-005     0.0000000000000000     
  -1.9933333333333334E-005     0.0000000000000000     
  -1.9733333333333336E-005     0.0000000000000000     
  -1.9533333333333335E-005     0.0000000000000000     
  -1.9333333333333333E-005     0.0000000000000000     
  -1.9133333333333335E-005     0.0000000000000000     
  -1.8933333333333337E-005     0.0000000000000000     
  -1.8733333333333336E-005     0.0000000000000000     
  -1.8533333333333334E-005     0.0000000000000000     
  -1.8333333333333336E-005     0.0000000000000000     
  -1.8133333333333335E-005     0.0000000000000000     
  -1.7933333333333337E-005     0.0000000000000000     
  -1.7733333333333335E-005     0.0000000000000000     
  -1.7533333333333337E-005     0.0000000000000000     
  -1.7333333333333336E-005     0.0000000000000000     
  -1.7133333333333334E-005     0.0000000000000000     
  -1.6933333333333336E-005     0.0000000000000000     
  -1.6733333333333335E-005     0.0000000000000000     
  -1.6533333333333337E-005     0.0000000000000000     
  -1.6333333333333335E-005     0.0000000000000000     
  -1.6133333333333337E-005     0.0000000000000000     
  -1.5933333333333336E-005     0.0000000000000000     
  -1.5733333333333334E-005     0.0000000000000000     
  -1.5533333333333336E-005     0.0000000000000000     
  -1.5333333333333334E-005     0.0000000000000000     
  -1.5133333333333336E-005     0.0000000000000000     
  -1.4933333333333335E-005     0.0000000000000000     
  -1.4733333333333337E-005     0.0000000000000000     
  -1.4533333333333335E-005     0.0000000000000000     
  -1.4333333333333337E-005     0.0000000000000000     
  -1.4133333333333336E-005     0.0000000000000000     
  -1.3933333333333334E-005     0.0000000000000000     
  -1.3733333333333336E-005     0.0000000000000000     
  -1.3533333333333335E-005     0.0000000000000000     
  -1.3333333333333337E-005     0.0000000000000000     
  -1.3133333333333335E-005     0.0000000000000000     
  -1.2933333333333337E-005     0.0000000000000000     
  -1.2733333333333336E-005     0.0000000000000000     
  -1.2533333333333338E-005     0.0000000000000000     
  -1.2333333333333336E-005     0.0000000000000000     
  -1.2133333333333335E-005     0.0000000000000000     
  -1.1933333333333337E-005     0.0000000000000000     
  -1.1733333333333335E-005     0.0000000000000000     
  -1.1533333333333337E-005     0.0000000000000000     
  -1.1333333333333336E-005     0.0000000000000000     
  -1.1133333333333337E-005     0.0000000000000000     
  -1.0933333333333336E-005     0.0000000000000000     
  -1.0733333333333334E-005     0.0000000000000000     
  -1.0533333333333336E-005     0.0000000000000000     
  -1.0333333333333335E-005     0.0000000000000000     
  -1.0133333333333337E-005     0.0000000000000000     
  -9.9333333333333354E-006     0.0000000000000000     
  -9.7333333333333373E-006     0.0000000000000000     
  -9.5333333333333358E-006     0.0000000000000000     
  -9.3333333333333343E-006     0.0000000000000000     
  -9.1333333333333362E-006     0.0000000000000000     
  -8.9333333333333348E-006     0.0000000000000000     
  -8.7333333333333367E-006     0.0000000000000000     
  -8.5333333333333352E-006     0.0000000000000000     
  -8.3333333333333371E-006     0.0000000000000000     
  -8.1333333333333356E-006     0.0000000000000000     
  -7.9333333333333376E-006     0.0000000000000000     
  -7.7333333333333361E-006     0.0000000000000000     
  -7.5333333333333346E-006     0.0000000000000000     
  -7.3333333333333365E-006     0.0000000000000000     
  -7.1333333333333351E-006     0.0000000000000000     
  -6.9333333333333370E-006     0.0000000000000000     
  -6.7333333333333355E-006     0.0000000000000000     
  -6.5333333333333374E-006     0.0000000000000000     
  -6.3333333333333359E-006     0.0000000000000000     
  -6.1333333333333379E-006     0.0000000000000000     
  -5.9333333333333364E-006     0.0000000000000000     
  -5.7333333333333349E-006     0.0000000000000000     
  -5.5333333333333368E-006     0.0000000000000000     
  -5.3333333333333354E-006     0.0000000000000000     
  -5.1333333333333373E-006     0.0000000000000000     
  -4.9333333333333358E-006     0.0000000000000000     
  -4.7333333333333377E-006     0.0000000000000000     
  -4.5333333333333362E-006     0.0000000000000000     
  -4.3333333333333348E-006     0.0000000000000000     
  -4.1333333333333367E-006     0.0000000000000000     
  -3.9333333333333352E-006     0.0000000000000000     
  -3.7333333333333371E-006     0.0000000000000000     
  -3.5333333333333356E-006     0.0000000000000000     
  -3.3333333333333376E-006     0.0000000000000000     
  -3.1333333333333361E-006     0.0000000000000000     
  -2.9333333333333346E-006     0.0000000000000000     
  -2.7333333333333365E-006     0.0000000000000000     
  -2.5333333333333384E-006     0.0000000000000000     
  -2.3333333333333336E-006     0.0000000000000000     
  -2.1333333333333355E-006     0.0000000000000000     
  -1.9333333333333374E-006     0.0000000000000000     
  -1.7333333333333393E-006     0.0000000000000000     
  -1.5333333333333345E-006     0.0000000000000000     
  -1.3333333333333364E-006     0.0000000000000000     
  -1.1333333333333383E-006     0.0000000000000000     
  -9.3333333333333343E-007     0.0000000000000000     
  -7.3333333333333535E-007     0.0000000000000000     
  -5.3333333333333726E-007     0.0000000000000000     
  -3.3333333333333918E-007     0.0000000000000000     
  -1.3333333333333432E-007     0.0000000000000000     
   6.6666666666663770E-008     0.0000000000000000     
   2.6666666666666185E-007     0.0000000000000000     
   4.6666666666666672E-007     0.0000000000000000     
   6.6666666666666480E-007     0.0000000000000000     
   8.6666666666666289E-007     1.4575763990893291E-039
   1.0666666666666610E-006     2.8397780669306573E-039
   1.2666666666666658E-006     3.4996046416451896E-039
   1.4666666666666639E-006     8.6034479737186447E-040
   1.6666666666666620E-006    -6.1520506108467499E-039
   1.8666666666666669E-006    -1.6675868260035001E-038
   2.0666666666666649E-006    -2.9375402697978774E-038
   2.2666666666666630E-006    -4.1015819875399840E-038
   2.4666666666666611E-006    -4.6100890627947725E-038
   2.6666666666666660E-006    -2.7611390439763548E-038
   2.8666666666666641E-006     1.1497023942213359E-038
   3.0666666666666622E-006     8.4043292902610126E-038
   3.2666666666666602E-006     1.8649788536823760E-037
   3.4666666666666651E-006     3.0182306246725832E-037
   3.6666666666666632E-006     4.0348953162051820E-037
   3.8666666666666613E-006     4.4858935606511726E-037
   4.0666666666666661E-006     3.7894469127138081E-037
   4.2666666666666642E-006     1.3281235676207814E-037
   4.4666666666666623E-006    -3.1340010640470940E-037
   4.6666666666666604E-006    -9.7373206230209034E-037
   4.8666666666666652E-006    -1.7779148290526654E-036
   5.0666666666666633E-006    -2.5663190140091164E-036
   5.2666666666666614E-006    -3.0951629522541855E-036
   5.4666666666666663E-006    -3.0446830343396161E-036
   5.6666666666666644E-006    -2.0737764458438370E-036
   5.8666666666666624E-006     9.0690135003091132E-038
   6.0666666666666605E-006     3.5357038125095842E-036
   6.2666666666666654E-006     8.0236500185445666E-036
   6.4666666666666635E-006     1.2877565734627499E-035
   6.6666666666666616E-006     1.6925444114276985E-035
   6.8666666666666664E-006     1.8557157130129752E-035
   7.0666666666666645E-006     1.5939490949720311E-035
   7.2666666666666626E-006     7.4123094800077333E-036
   7.4666666666666607E-006    -7.9451571179642768E-036
   7.6666666666666655E-006    -2.9653997937202046E-035
   7.8666666666666636E-006    -5.5213641040048824E-035
   8.0666666666666617E-006    -7.9715869160122906E-035
   8.2666666666666598E-006    -9.5927591337839897E-035
   8.4666666666666647E-006    -9.5061512156444684E-035
   8.6666666666666627E-006    -6.8377404832296725E-035
   8.8666666666666608E-006    -9.5908290261367768E-036
   9.0666666666666657E-006     8.2164141383853413E-035
   9.2666666666666638E-006     1.9935642601559484E-034
   9.4666666666666619E-006     3.2387251268947716E-034
   9.6666666666666599E-006     4.2661414236985902E-034
   9.8666666666666648E-006     4.6986405224011878E-034
   1.0066666666666663E-005     4.1312491548350914E-034
   1.0266666666666661E-005     2.2252954511577333E-034
   1.0466666666666666E-005    -1.1700640821270236E-034
   1.0666666666666664E-005    -5.8885595234419397E-034
   1.0866666666666662E-005    -1.1340816856943890E-033
   1.1066666666666660E-005    -1.6470964640950932E-033
   1.1266666666666665E-005    -1.9816533968604474E-033
   1.1466666666666663E-005    -1.9703356071093181E-033
   1.1666666666666661E-005    -1.4585410054223740E-033
   1.1866666666666666E-005    -3.5053059446570015E-034
   1.2066666666666664E-005     1.3392265146711957E-033
   1.2266666666666662E-005     3.4406205763687589E-033
   1.2466666666666660E-005     5.6030287187203147E-033
   1.2666666666666665E-005     7.3066460417203799E-033
   1.2866666666666663E-005     7.9229426321465634E-033
   1.3066666666666661E-005     6.8297641372749219E-033
   1.3266666666666666E-005     3.5745123787911798E-033
   1.3466666666666664E-005    -1.9367142622618695E-033
   1.3666666666666662E-005    -9.2624827840039111E-033
   1.3866666666666660E-005    -1.7313430568383452E-032
   1.4066666666666665E-005    -2.4360199767006823E-032
   1.4266666666666663E-005    -2.8210426979045405E-032
   1.4466666666666661E-005    -2.6579205946834803E-032
   1.4666666666666666E-005    -1.7636875761124919E-032
   1.4866666666666664E-005    -6.6499068178806333E-034
   1.5066666666666662E-005     2.3305205265427605E-032
   1.5266666666666661E-005     5.1044000228291389E-032
   1.5466666666666665E-005     7.7056551779691136E-032
   1.5666666666666663E-005     9.4069024815186397E-032
   1.5866666666666662E-005     9.4163388137819187E-032
   1.6066666666666660E-005     7.0527865468746082E-032
   1.6266666666666665E-005     1.9619589027163046E-032
   1.6466666666666663E-005    -5.6648118053801759E-032
   1.6666666666666661E-005    -1.4923628253324504E-031
   1.6866666666666666E-005    -2.4144677119703464E-031
   1.7066666666666664E-005    -3.1009033968509925E-031
   1.7266666666666662E-005    -3.2870746822545017E-031
   1.7466666666666660E-005    -2.7281404735736952E-031
   1.7666666666666665E-005    -1.2663457637379276E-031
   1.7866666666666663E-005     1.0976937875464712E-031
   1.8066666666666661E-005     4.1454900731426356E-031
   1.8266666666666666E-005     7.4113519565194612E-031
   1.8466666666666664E-005     1.0200698133340037E-030
   1.8666666666666662E-005     1.1668180685114778E-030
   1.8866666666666660E-005     1.0957877649606651E-030
   1.9066666666666665E-005     7.3943268564680446E-031
   1.9266666666666663E-005     6.9820096589117877E-032
   1.9466666666666661E-005    -8.8130453556495021E-031
   1.9666666666666666E-005    -2.0087683089384433E-030
   1.9866666666666664E-005    -3.1313769575543658E-030
   2.0066666666666662E-005    -4.0043227558723835E-030
   2.0266666666666660E-005    -4.3484106974774400E-030
   2.0466666666666665E-005    -3.8950595219318556E-030
   2.0666666666666663E-005    -2.4427848973647294E-030
   2.0866666666666661E-005     8.2201275616255260E-032
   2.1066666666666659E-005     3.5709209474576982E-030
   2.1266666666666664E-005     7.6927569974758776E-030
   2.1466666666666662E-005     1.1882960487998721E-029
   2.1666666666666660E-005     1.5364849893091905E-029
   2.1866666666666665E-005     1.7212101901458564E-029
   2.2066666666666663E-005     1.6453091727406826E-029
   2.2266666666666661E-005     1.2215623228629689E-029
   2.2466666666666659E-005     3.9065437726712084E-030
   2.2666666666666664E-005    -8.5838818627837527E-030
   2.2866666666666662E-005    -2.4669431497708062E-029
   2.3066666666666660E-005    -4.2873449013795871E-029
   2.3266666666666665E-005    -6.0691726501124860E-029
   2.3466666666666663E-005    -7.4567810452547779E-029
   2.3666666666666661E-005    -8.0050406102214948E-029
   2.3866666666666660E-005    -7.2209480706917619E-029
   2.4066666666666664E-005    -4.6377857506890826E-029
   2.4266666666666662E-005     7.5221910834214156E-031
   2.4466666666666661E-005     6.9720401474006989E-029
   2.4666666666666665E-005     1.5672963898974611E-028
   2.4866666666666663E-005     2.5220741278581927E-028
   2.5066666666666662E-005     3.3992759201244830E-028
   2.5266666666666660E-005     3.9722993338227632E-028
   2.5466666666666665E-005     3.9689281531220944E-028
   2.5666666666666663E-005     3.1109213734684810E-028
   2.5866666666666661E-005     1.1756962240328628E-028
   2.6066666666666666E-005    -1.9237330977598892E-028
   2.6266666666666664E-005    -6.0511392296817778E-028
   2.6466666666666662E-005    -1.0769724572203228E-027
   2.6666666666666660E-005    -1.5299339243414087E-027
   2.6866666666666665E-005    -1.8535733256742684E-027
   2.7066666666666663E-005    -1.9156900892722662E-027
   2.7266666666666661E-005    -1.5831582214967927E-027
   2.7466666666666666E-005    -7.5264965142071979E-028
   2.7666666666666664E-005     6.1171568924571457E-028
   2.7866666666666662E-005     2.4397832723809097E-027
   2.8066666666666667E-005     4.5247202615043544E-027
   2.8266666666666658E-005     6.5111487691914928E-027
   2.8466666666666663E-005     7.9130183080807329E-027
   2.8666666666666668E-005     8.1696596918134551E-027
   2.8866666666666659E-005     6.7428743156846536E-027
   2.9066666666666664E-005     3.2492672281635108E-027
   2.9266666666666669E-005    -2.3886657265115734E-027
   2.9466666666666660E-005    -9.8003098010706116E-027
   2.9666666666666665E-005    -1.8070089234975173E-026
   2.9866666666666656E-005    -2.5726341974469987E-026
   3.0066666666666661E-005    -3.0852005507627997E-026
   3.0266666666666666E-005    -3.1338946143413192E-026
   3.0466666666666657E-005    -2.5283004125113488E-026
   3.0666666666666662E-005    -1.1483505775826616E-026
   3.0866666666666667E-005     1.0026235257364022E-026
   3.1066666666666658E-005     3.7524965887378491E-026
   3.1266666666666663E-005     6.7355386087583684E-026
   3.1466666666666668E-005     9.4011491365296658E-026
   3.1666666666666659E-005     1.1066216590375147E-025
   3.1866666666666664E-005     1.1015031659739863E-025
   3.2066666666666656E-005     8.6415464370344018E-026
   3.2266666666666660E-005     3.6176749559254816E-026
   3.2466666666666665E-005    -3.9399350717020438E-026
   3.2666666666666657E-005    -1.3341152668642140E-025
   3.2866666666666661E-005    -2.3272073976585137E-025
   3.3066666666666666E-005    -3.1860058819193800E-025
   3.3266666666666658E-005    -3.6878239821791939E-025
   3.3466666666666662E-005    -3.6091756499724612E-025
   3.3666666666666667E-005    -2.7718554467888001E-025
   3.3866666666666659E-005    -1.0944850308471695E-025
   3.4066666666666664E-005     1.3594843956662958E-025
   3.4266666666666668E-005     4.3483813049272116E-025
   3.4466666666666660E-005     7.4449582004525739E-025
   3.4666666666666665E-005     1.0064580898309879E-024
   3.4866666666666656E-005     1.1534020846055555E-024
   3.5066666666666661E-005     1.1199128536320715E-024
   3.5266666666666666E-005     8.5612214284857256E-025
   3.5466666666666657E-005     3.4232903091686462E-025
   3.5666666666666662E-005    -3.9803394463211614E-025
   3.5866666666666667E-005    -1.2901451445865071E-024
   3.6066666666666658E-005    -2.2072351700087299E-024
   3.6266666666666663E-005    -2.9800264048710507E-024
   3.6466666666666668E-005    -3.4171450032469350E-024
   3.6666666666666659E-005    -3.3356042831203159E-024
   3.6866666666666664E-005    -2.5982623140344670E-024
   3.7066666666666669E-005    -1.1529664130885084E-024
   3.7266666666666660E-005     9.3362879844042250E-025
   3.7466666666666665E-005     3.4554294911802367E-024
   3.7666666666666656E-005     6.0668768986591902E-024
   3.7866666666666661E-005     8.3089971380281441E-024
   3.8066666666666666E-005     9.6635335591530792E-024
   3.8266666666666657E-005     9.6324592113049514E-024
   3.8466666666666662E-005     7.8348027975287081E-024
   3.8666666666666667E-005     4.1075246821974167E-024
   3.8866666666666658E-005    -1.4068651981882011E-024
   3.9066666666666663E-005    -8.2051490678175757E-024
   3.9266666666666668E-005    -1.5418765699480036E-023
   3.9466666666666659E-005    -2.1873184272117934E-023
   3.9666666666666664E-005    -2.6216706217618320E-023
   3.9866666666666655E-005    -2.7113189776972577E-023
   4.0066666666666660E-005    -2.3480729413965992E-023
   4.0266666666666665E-005    -1.4746064133033292E-023
   4.0466666666666656E-005    -1.0745826893054369E-024
   4.0666666666666661E-005     1.6469547806826640E-023
   4.0866666666666666E-005     3.5877463520920399E-023
   4.1066666666666657E-005     5.4299413088808387E-023
   4.1266666666666662E-005     6.8317112163348117E-023
   4.1466666666666667E-005     7.4379672503809882E-023
   4.1666666666666658E-005     6.9370029881004928E-023
   4.1866666666666663E-005     5.1239221328922928E-023
   4.2066666666666668E-005     1.9620164692869432E-023
   4.2266666666666660E-005    -2.3685387647689812E-023
   4.2466666666666664E-005    -7.4457477846025676E-023
   4.2666666666666656E-005    -1.2614528898120507E-022
   4.2866666666666661E-005    -1.7035962136471963E-022
   4.3066666666666665E-005    -1.9779049700218390E-022
   4.3266666666666657E-005    -1.9950617831063224E-022
   4.3466666666666662E-005    -1.6851816781962881E-022
   4.3666666666666666E-005    -1.0142515615981321E-022
   4.3866666666666658E-005     1.1015172529815148E-025
   4.4066666666666663E-005     1.2833277742485169E-022
   4.4266666666666667E-005     2.6909634911311491E-022
   4.4466666666666659E-005     4.0252802078101878E-022
   4.4666666666666664E-005     5.0479778874013687E-022
   4.4866666666666655E-005     5.5098963339140231E-022
   4.5066666666666660E-005     5.1889400369434806E-022
   4.5266666666666665E-005     3.9334349551174022E-022
   4.5466666666666656E-005     1.7052599071352767E-022
   4.5666666666666661E-005    -1.3843576074944188E-022
   4.5866666666666666E-005    -5.0541814042667782E-022
   4.6066666666666657E-005    -8.8548085845633203E-022
   4.6266666666666662E-005    -1.2198641792478440E-021
   4.6466666666666667E-005    -1.4420446225359417E-021
   4.6666666666666658E-005    -1.4866539700459034E-021
   4.6866666666666663E-005    -1.3005356549360482E-021
   4.7066666666666668E-005    -8.5466265914073997E-022
   4.7266666666666659E-005    -1.5516063414027644E-022
   4.7466666666666664E-005     7.4863902456229441E-022
   4.7666666666666655E-005     1.7612355659301757E-021
   4.7866666666666660E-005     2.7449054826424060E-021
   4.8066666666666665E-005     3.5316887002204821E-021
   4.8266666666666656E-005     3.9434781037286003E-021
   4.8466666666666661E-005     3.8189160384209905E-021
   4.8666666666666666E-005     3.0443126760999046E-021
   4.8866666666666657E-005     1.5844083005588938E-021
   4.9066666666666662E-005    -4.9225039605127738E-022
   4.9266666666666667E-005    -2.9989419359866054E-021
   4.9466666666666658E-005    -5.6325825285962718E-021
   4.9666666666666663E-005    -7.9954209033641194E-021
   4.9866666666666655E-005    -9.6378454531967318E-021
   5.0066666666666659E-005    -1.0120244814682991E-020
   5.0266666666666664E-005    -9.0880950831321679E-021
   5.0466666666666656E-005    -6.3508070104325111E-021
   5.0666666666666660E-005    -1.9519343450673989E-021
   5.0866666666666665E-005     3.7831318526524998E-021
   5.1066666666666657E-005     1.0235288309196125E-020
   5.1266666666666661E-005     1.6526002556869698E-020
   5.1466666666666666E-005     2.1602632271809056E-020
   5.1666666666666658E-005     2.4372120779156939E-020
   5.1866666666666662E-005     2.3871592254801850E-020
   5.2066666666666667E-005     1.9455528139967079E-020
   5.2266666666666659E-005     1.0971875543813135E-020
   5.2466666666666664E-005    -1.1048246314892425E-021
   5.2666666666666655E-005    -1.5614919651586238E-020
   5.2866666666666660E-005    -3.0755646757803398E-020
   5.3066666666666665E-005    -4.4238189498244029E-020
   5.3266666666666656E-005    -5.3558107848873248E-020
   5.3466666666666661E-005    -5.6358017992938478E-020
   5.3666666666666666E-005    -5.0841567162764175E-020
   5.3866666666666657E-005    -3.6180671064575634E-020
   5.4066666666666662E-005    -1.2847291656111475E-020
   5.4266666666666667E-005     1.7200318316004126E-020
   5.4466666666666658E-005     5.0536782573330100E-020
   5.4666666666666663E-005     8.2531770173726249E-020
   5.4866666666666668E-005     1.0785983664259364E-019
   5.5066666666666659E-005     1.2122244237115933E-019
   5.5266666666666664E-005     1.1820486810665940E-019
   5.5466666666666655E-005     9.6153661022316661E-020
   5.5666666666666660E-005     5.4935334815233192E-020
   5.5866666666666665E-005    -2.5694627270272772E-021
   5.6066666666666656E-005    -7.0365544126876124E-020
   5.6266666666666661E-005    -1.3972523261793429E-019
   5.6466666666666666E-005    -2.0007859666318460E-019
   5.6666666666666657E-005    -2.4035944532179127E-019
   5.6866666666666662E-005    -2.5067141143752903E-019
   5.7066666666666667E-005    -2.2406239466931110E-019
   5.7266666666666658E-005    -1.5814152179533100E-019
   5.7466666666666663E-005    -5.6252008683028191E-020
   5.7666666666666654E-005     7.2063720085622791E-020
   5.7866666666666659E-005     2.1150111864263094E-019
   5.8066666666666664E-005     3.4241533168309785E-019
   5.8266666666666655E-005     4.4316560904824508E-019
   5.8466666666666660E-005     4.9316329198035207E-019
   5.8666666666666665E-005     4.7625554519090583E-019
   5.8866666666666656E-005     3.8396525924045467E-019
   5.9066666666666661E-005     2.1805254014241085E-019
   5.9266666666666666E-005    -8.1129830771020127E-021
   5.9466666666666657E-005    -2.6977238972344930E-019
   5.9666666666666662E-005    -5.3280515374176919E-019
   5.9866666666666667E-005    -7.5752652221678441E-019
   6.0066666666666659E-005    -9.0393283118993304E-019
   6.0266666666666663E-005    -9.3779720092189578E-019
   6.0466666666666655E-005    -8.3679325382691974E-019
   6.0666666666666660E-005    -5.9569729731711136E-019
   6.0866666666666664E-005    -2.2972311564664481E-019
   6.1066666666666656E-005     2.2480352317963411E-019
   6.1266666666666661E-005     7.1292558022335540E-019
   6.1466666666666665E-005     1.1667614822130098E-018
   6.1666666666666657E-005     1.5140173654578811E-018
   6.1866666666666662E-005     1.6883832406710298E-018
   6.2066666666666666E-005     1.6404655023522975E-018
   6.2266666666666658E-005     1.3476305869115015E-018
   6.2466666666666663E-005     8.2107430598694763E-019
   6.2666666666666668E-005     1.0862618061633562E-019
   6.2866666666666659E-005    -7.0774344725624936E-019
   6.3066666666666664E-005    -1.5200582613829070E-018
   6.3266666666666655E-005    -2.2076170639606079E-018
   6.3466666666666660E-005    -2.6540401537409327E-018
   6.3666666666666665E-005    -2.7659054579555542E-018
   6.3866666666666656E-005    -2.4902345055305618E-018
   6.4066666666666661E-005    -1.8278749735973879E-018
   6.4266666666666666E-005    -8.4005813418022019E-019
   6.4466666666666657E-005     3.5389366908166133E-019
   6.4666666666666662E-005     1.5886016581809483E-018
   6.4866666666666667E-005     2.6738510949407836E-018
   6.5066666666666658E-005     3.4228631359548958E-018
   6.5266666666666663E-005     3.6839912762893195E-018
   6.5466666666666654E-005     3.3710964346746525E-018
   6.5666666666666659E-005     2.4873055387967369E-018
   6.5866666666666664E-005     1.1371082774645870E-018
   6.6066666666666655E-005    -4.7715579957963911E-019
   6.6266666666666660E-005    -2.0764216302891884E-018
   6.6466666666666665E-005    -3.3430372704903221E-018
   6.6666666666666656E-005    -3.9723663412924710E-018
   6.6866666666666661E-005    -3.7314152298821702E-018
   6.7066666666666666E-005    -2.5156972811048146E-018
   6.7266666666666657E-005    -3.9422559163828981E-019
   6.7466666666666662E-005     2.3673843173723006E-018
   6.7666666666666667E-005     5.3139733553212208E-018
   6.7866666666666658E-005     7.8428990576301015E-018
   6.8066666666666663E-005     9.2810859118004387E-018
   6.8266666666666655E-005     8.9912662350009385E-018
   6.8466666666666659E-005     6.4956777848070404E-018
   6.8666666666666664E-005     1.6002900764693305E-018
   6.8866666666666656E-005    -5.5008688304263091E-018
   6.9066666666666660E-005    -1.4162613559049306E-017
   6.9266666666666665E-005    -2.3285778373643405E-017
   6.9466666666666657E-005    -3.1388033377722832E-017
   6.9666666666666661E-005    -3.6752801399685685E-017
   6.9866666666666666E-005    -3.7649500439430853E-017
   7.0066666666666658E-005    -3.2605963217303414E-017
   7.0266666666666662E-005    -2.0702128371126052E-017
   7.0466666666666654E-005    -1.8448108490416147E-018
   7.0666666666666659E-005     2.3021638082783912E-017
   7.0866666666666664E-005     5.1813169340532461E-017
   7.1066666666666655E-005     8.1349263915111240E-017
   7.1266666666666660E-005     1.0756418080087129E-016
   7.1466666666666665E-005     1.2588890633133270E-016
   7.1666666666666656E-005     1.3178260544297638E-016
   7.1866666666666661E-005     1.2136745961583956E-016
   7.2066666666666666E-005     9.2098368859794948E-017
   7.2266666666666657E-005     4.3382223169749351E-017
   7.2466666666666662E-005    -2.2945981196112090E-017
   7.2666666666666667E-005    -1.0237856282829153E-016
   7.2866666666666658E-005    -1.8779416861542199E-016
   7.3066666666666663E-005    -2.6986288851444286E-016
   7.3266666666666654E-005    -3.3780165227777688E-016
   7.3466666666666659E-005    -3.8043890080843923E-016
   7.3666666666666664E-005    -3.8750241832746233E-016
   7.3866666666666655E-005    -3.5100376857575048E-016
   7.4066666666666660E-005    -2.6656434111115337E-016
   7.4266666666666665E-005    -1.3451551677522658E-016
   7.4466666666666656E-005     3.9387173653195786E-017
   7.4666666666666661E-005     2.4376714341224771E-016
   7.4866666666666666E-005     4.6203191623780863E-016
   7.5066666666666657E-005     6.7340202767874709E-016
   7.5266666666666662E-005     8.5451595421619497E-016
   7.5466666666666653E-005     9.8149374664817716E-016