  -3.3333333333333335E-005     0.0000000000000000     
  -3.3133333333333337E-005     0.0000000000000000     
  -3.2933333333333332E-005     0.0000000000000000     
  -3.2733333333333334E-005     0.0000000000000000     
  -3.2533333333333336E-005     0.0000000000000000     
  -3.2333333333333338E-005     0.0000000000000000     
  -3.2133333333333333E-005     0.0000000000000000     
  -3.1933333333333335E-005     0.0000000000000000     
  -3.1733333333333337E-005     0.0000000000000000     
  -3.1533333333333332E-005     0.0000000000000000     
  -3.1333333333333334E-005     0.0000000000000000     
  -3.1133333333333336E-005     0.0000000000000000     
  -3.0933333333333338E-005     0.0000000000000000     
  -3.0733333333333333E-005     0.0000000000000000     
  -3.0533333333333335E-005     0.0000000000000000     
  -3.0333333333333337E-005     0.0000000000000000     
  -3.0133333333333335E-005     0.0000000000000000     
  -2.9933333333333334E-005     0.0000000000000000     
  -2.9733333333333336E-005     0.0000000000000000     
  -2.9533333333333334E-005     0.0000000000000000     
  -2.9333333333333336E-005     0.0000000000000000     
  -2.9133333333333334E-005     0.0000000000000000     
  -2.8933333333333336E-005     0.0000000000000000     
  -2.8733333333333335E-005     0.0000000000000000     
  -2.8533333333333333E-005     0.0000000000000000     
  -2.8333333333333335E-005     0.0000000000000000     
  -2.8133333333333337E-005     0.0000000000000000     
  -2.7933333333333336E-005     0.0000000000000000     
  -2.7733333333333334E-005     0.0000000000000000     
  -2.7533333333333336E-005     0.0000000000000000     
  -2.7333333333333335E-005     0.0000000000000000     
  -2.7133333333333333E-005     0.0000000000000000     
  -2.6933333333333335E-005     0.0000000000000000     
  -2.6733333333333337E-005     0.0000000000000000     
  -2.6533333333333336E-005     0.0000000000000000     
  -2.6333333333333334E-005     0.0000000000000000     
  -2.6133333333333336E-005     0.0000000000000000     
  -2.5933333333333335E-005     0.0000000000000000     
  -2.5733333333333333E-005     0.0000000000000000     
  -2.5533333333333335E-005     0.0000000000000000     
  -2.5333333333333337E-005     0.0000000000000000     
  -2.5133333333333336E-005     0.0000000000000000     
  -2.4933333333333334E-005     0.0000000000000000     
  -2.4733333333333336E-005     0.0000000000000000     
  -2.4533333333333334E-005     0.0000000000000000     
  -2.4333333333333333E-005     0.0000000000000000     
  -2.4133333333333335E-005     0.0000000000000000     
  -2.3933333333333337E-005     0.0000000000000000     
  -2.3733333333333335E-005     0.0000000000000000     
  -2.3533333333333334E-005     0.0000000000000000     
  -2.3333333333333336E-005     0.0000000000000000     
  -2.3133333333333338E-005     0.0000000000000000     
  -2.2933333333333336E-005     0.0000000000000000     
  -2.2733333333333335E-005     0.0000000000000000     
  -2.2533333333333337E-005     0.0000000000000000     
  -2.2333333333333335E-005     0.0000000000000000     
  -2.2133333333333334E-005     0.0000000000000000     
  -2.1933333333333336E-005     0.0000000000000000     
  -2.1733333333333338E-005     0.0000000000000000     
  -2.1533333333333336E-005     0.0000000000000000     
  -2.1333333333333335E-005     0.0000000000000000     
  -2.1133333333333337E-005     0.0000000000000000     
  -2.0933333333333335E-005     0.0000000000000000     
  -2.0733333333333334E-005     0.0000000000000000     
  -2.0533333333333336E-005     0.0000000000000000     
  -2.0333333333333337E-005     0.0000000000000000     
  -2.0133333333333336E-005     0.0000000000000000     
  -1.9933333333333334E-005     0.0000000000000000     
  -1.9733333333333336E-005     0.0000000000000000     
  -1.9533333333333335E-005     0.0000000000000000     
  -1.9333333333333333E-005     0.0000000000000000     
  -1.9133333333333335E-005     0.0000000000000000     
  -1.8933333333333337E-005     0.0000000000000000     
  -1.8733333333333336E-005     0.0000000000000000     
  -1.8533333333333334E-005     0.0000000000000000     
  -1.8333333333333336E-005     0.0000000000000000     
  -1.8133333333333335E-005     0.0000000000000000     
  -1.7933333333333337E-005     0.0000000000000000     
  -1.7733333333333335E-005     0.0000000000000000     
  -1.7533333333333337E-005     0.0000000000000000     
  -1.7333333333333336E-005     0.0000000000000000     
  -1.7133333333333334E-005     4.2589637996756328E-041
  -1.6933333333333336E-005     1.6948182584441034E-040
  -1.6733333333333335E-005     4.3717112388896440E-040
  -1.6533333333333337E-005     8.4768885939131520E-040
  -1.6333333333333335E-005     7.8947245863780301E-040
  -1.6133333333333337E-005    -3.7542696913183967E-041
  -1.5933333333333336E-005    -2.8731536275425228E-039
  -1.5733333333333334E-005    -9.5452665985085725E-039
  -1.5533333333333336E-005    -1.8366000591789862E-038
  -1.5333333333333334E-005    -2.6454366983941762E-038
  -1.5133333333333336E-005    -2.6018857918057994E-038
  -1.4933333333333335E-005    -2.0207992818449706E-039
  -1.4733333333333337E-005     5.9824034937590494E-038
  -1.4533333333333335E-005     1.6562504189538716E-037
  -1.4333333333333337E-005     3.0449990413978812E-037
  -1.4133333333333336E-005     4.5170747542249946E-037
  -1.3933333333333334E-005     5.2934190235916972E-037
  -1.3733333333333336E-005     4.0881632605906013E-037
  -1.3533333333333335E-005    -1.1340623333804128E-037
  -1.3333333333333337E-005    -1.2740793186264648E-036
  -1.3133333333333335E-005    -3.2010482346205719E-036
  -1.2933333333333337E-005    -5.7491071454013412E-036
  -1.2733333333333336E-005    -8.2284380284656419E-036
  -1.2533333333333338E-005    -9.1236648205522478E-036
  -1.2333333333333336E-005    -5.9667195390269540E-036
  -1.2133333333333335E-005     4.3775195220929191E-036
  -1.1933333333333337E-005     2.4788268241807311E-035
  -1.1733333333333335E-005     5.5951773468664391E-035
  -1.1533333333333337E-005     9.3484085879127925E-035
  -1.1333333333333336E-005     1.2458164412388100E-034
  -1.1133333333333337E-005     1.2551501450448675E-034
  -1.0933333333333336E-005     6.2229077139806931E-035
  -1.0733333333333334E-005    -1.0295000183720852E-034
  -1.0533333333333336E-005    -3.9560062814135209E-034
  -1.0333333333333335E-005    -8.0332250402726113E-034
  -1.0133333333333337E-005    -1.2426311185551007E-033
  -9.9333333333333354E-006    -1.5282633425719493E-033
  -9.7333333333333373E-006    -1.3628527996395847E-033
  -9.5333333333333358E-006    -3.7220592925075507E-034
  -9.3333333333333343E-006     1.7870659311031426E-033
  -9.1333333333333362E-006     5.2312309848879166E-033
  -8.9333333333333348E-006     9.5763835250673050E-033
  -8.7333333333333367E-006     1.3649124083281489E-032
  -8.5333333333333352E-006     1.5304738692815380E-032
  -8.3333333333333371E-006     1.1537147521665294E-032
  -8.1333333333333356E-006    -9.0913355056329852E-034
  -7.9333333333333376E-006    -2.4265952544181744E-032
  -7.7333333333333361E-006    -5.7818852061547514E-032
  -7.5333333333333346E-006    -9.5657637026790544E-032
  -7.3333333333333365E-006    -1.2484808395009180E-031
  -7.1333333333333351E-006    -1.2520891217817634E-031
  -6.9333333333333370E-006    -7.2133196487055169E-032
  -6.7333333333333355E-006     5.6296673546452800E-032
  -6.5333333333333374E-006     2.6755781958587534E-031
  -6.3333333333333359E-006     5.3974138508925838E-031
  -6.1333333333333379E-006     8.0740582393872397E-031
  -5.9333333333333364E-006     9.5500322882655976E-031
  -5.7333333333333349E-006     8.2660689360044272E-031
  -5.5333333333333368E-006     2.6030974541082391E-031
  -5.3333333333333354E-006    -8.4859130597701438E-031
  -5.1333333333333373E-006    -2.4607221532428268E-030
  -4.9333333333333358E-006    -4.3010063871693625E-030
  -4.7333333333333377E-006    -5.7971507961835037E-030
  -4.5333333333333362E-006    -6.0958115336350746E-030
  -4.3333333333333348E-006    -4.2058430098277052E-030
  -4.1333333333333367E-006     6.9951123787659636E-031
  -3.9333333333333352E-006     8.8327627857666515E-030
  -3.7333333333333371E-006     1.9274449989718777E-029
  -3.5333333333333356E-006     2.9550331331669752E-029
  -3.3333333333333376E-006     3.5539364479864241E-029
  -3.1333333333333361E-006     3.1974938648259543E-029
  -2.9333333333333346E-006     1.3739847181357484E-029
  -2.7333333333333365E-006    -2.2028414211263809E-029
  -2.5333333333333384E-006    -7.3317381262249450E-029
  -2.3333333333333336E-006    -1.3079774074889225E-028
  -2.1333333333333355E-006    -1.7663380540541966E-028
  -1.9333333333333374E-006    -1.8582132211649526E-028
  -1.7333333333333393E-006    -1.3115539053946860E-028
  -1.5333333333333345E-006     7.7813012531644083E-030
  -1.3333333333333364E-006     2.3253045024767795E-028
  -1.1333333333333383E-006     5.1326034841389860E-028
  -9.3333333333333343E-007     7.8037185539177984E-028
  -7.3333333333333535E-007     9.2592968144540514E-028
  -5.3333333333333726E-007     8.2039747492009752E-028
  -3.3333333333333918E-007     3.4768683095692941E-028
  -1.3333333333333432E-007    -5.4355120209933610E-028
   6.6666666666663770E-008    -1.7817762459252802E-027
   2.6666666666666185E-007    -3.1250372555058719E-027
   4.6666666666666672E-007    -4.1478866678556629E-027
   6.6666666666666480E-007    -4.2877096048276495E-027
   8.6666666666666289E-007    -2.9680864829998943E-027
   1.0666666666666610E-006     2.0119251905498242E-028
   1.2666666666666658E-006     5.1758689328267673E-027
   1.4666666666666639E-006     1.1242573244531149E-026
   1.6666666666666620E-006     1.6889399600519868E-026
   1.8666666666666669E-006     1.9886626040178996E-026
   2.0666666666666649E-006     1.7665732780148801E-026
   2.2666666666666630E-006     8.0277015655254343E-027
   2.4666666666666611E-006    -9.8871620142777334E-027
   2.6666666666666660E-006    -3.4563469189427747E-026
   2.8666666666666641E-006    -6.1331722358137147E-026
   3.0666666666666622E-006    -8.2250841529685367E-026
   3.2666666666666602E-006    -8.7042337674695744E-026
   3.4666666666666651E-006    -6.5310200145683617E-026
   3.6666666666666632E-006    -9.9652963918223443E-027
   3.8666666666666613E-006     7.8674434545283039E-026
   4.0666666666666661E-006     1.8913136092512282E-025
   4.2666666666666642E-006     2.9678398985628510E-025
   4.4666666666666623E-006     3.6519344259935020E-025
   4.6666666666666604E-006     3.5195304286978024E-025
   4.8666666666666652E-006     2.1938527171213182E-025
   5.0666666666666633E-006    -5.1010105270592865E-026
   5.2666666666666614E-006    -4.4319143712272203E-025
   5.4666666666666663E-006    -8.9477021616058799E-025
   5.6666666666666644E-006    -1.2942097960870344E-024
   5.8666666666666624E-006    -1.4921484621564028E-024
   6.0666666666666605E-006    -1.3298691249693335E-024
   6.2666666666666654E-006    -6.8393495364660953E-025
   6.4666666666666635E-006     4.7947889924436479E-025
   6.6666666666666616E-006     2.0529336567574146E-024
   6.8666666666666664E-006     3.7557984361951730E-024
   7.0666666666666645E-006     5.1405193528879440E-024
   7.2666666666666626E-006     5.6519488131131807E-024
   7.4666666666666607E-006     4.7449066665524873E-024
   7.6666666666666655E-006     2.0497975891676622E-024
   7.8666666666666636E-006    -2.4425782875944597E-024
   8.0666666666666617E-006    -8.2236394335873847E-024
   8.2666666666666598E-006    -1.4194800760977050E-023
   8.4666666666666647E-006    -1.8736658536847200E-023
   8.6666666666666627E-006    -1.9957111926708036E-023
   8.8666666666666608E-006    -1.6118893613444500E-023
   9.0666666666666657E-006    -6.1951791420198637E-024
   9.2666666666666638E-006     9.5549704236498938E-024
   9.4666666666666619E-006     2.9147194265646630E-023
   9.6666666666666599E-006     4.8745198660912413E-023
   9.8666666666666648E-006     6.3001953329345353E-023
   1.0066666666666663E-005     6.5950221961907612E-023
   1.0266666666666661E-005     5.2400224823080881E-023
   1.0466666666666666E-005     1.9645495724251821E-023
   1.0666666666666664E-005    -3.0879123586562271E-023
   1.0866666666666662E-005    -9.2457860106443813E-023
   1.1066666666666660E-005    -1.5296763164163616E-022
   1.1266666666666665E-005    -1.9615700444569187E-022
   1.1466666666666663E-005    -2.0447737789636962E-022
   1.1666666666666661E-005    -1.6324547948719886E-022
   1.1866666666666666E-005    -6.5485032681873343E-023
   1.2066666666666664E-005     8.3603579739189681E-023
   1.2266666666666662E-005     2.6384471868984680E-022
   1.2466666666666660E-005     4.4024325296045898E-022
   1.2666666666666665E-005     5.6701599293116426E-022
   1.2866666666666663E-005     5.9570556355692144E-022
   1.3066666666666661E-005     4.8658864188265928E-022
   1.3266666666666666E-005     2.2149634629929923E-022
   1.3466666666666664E-005    -1.8477511806106734E-022
   1.3666666666666662E-005    -6.7778659022130515E-022
   1.3866666666666660E-005    -1.1646291203755830E-021
   1.4066666666666665E-005    -1.5250169253729420E-021
   1.4266666666666663E-005    -1.6324845248262566E-021
   1.4466666666666661E-005    -1.3834103621926510E-021
   1.4666666666666666E-005    -7.2899167213128568E-022
   1.4866666666666664E-005     2.9681066534353168E-022
   1.5066666666666662E-005     1.5613161044577493E-021
   1.5266666666666661E-005     2.8363922312279239E-021
   1.5466666666666665E-005     3.8255127511549306E-021
   1.5666666666666663E-005     4.2146714525155457E-021
   1.5866666666666662E-005     3.7415168872026210E-021
   1.6066666666666660E-005     2.2712332017171813E-021
   1.6266666666666665E-005    -1.3693405385114259E-022
   1.6466666666666663E-005    -3.1905990380385437E-021
   1.6666666666666661E-005    -6.3689373146624902E-021
   1.6866666666666666E-005    -8.9814730900489281E-021
   1.7066666666666664E-005    -1.0281337575810892E-020
   1.7266666666666662E-005    -9.6209222372072862E-021
   1.7466666666666660E-005    -6.6250738055495516E-021
   1.7666666666666665E-005    -1.3468395327689816E-021
   1.7866666666666663E-005     5.6339381299205758E-021
   1.8066666666666661E-005     1.3205696927204783E-020
   1.8266666666666666E-005     1.9838270423842855E-020
   1.8466666666666664E-005     2.3817935568352450E-020
   1.8666666666666662E-005     2.3581991185608546E-020
   1.8866666666666660E-005     1.8103068072157790E-020
   1.9066666666666665E-005     7.2502281847226945E-021
   1.9266666666666663E-005    -7.9583777529935389E-021
   1.9466666666666661E-005    -2.5293286760802056E-020
   1.9666666666666666E-005    -4.1501870874947977E-020
   1.9866666666666664E-005    -5.2766557447049992E-020
   2.0066666666666662E-005    -5.5398686795167358E-020
   2.0266666666666660E-005    -4.6674049794004091E-020
   2.0466666666666665E-005    -2.5662959463922696E-020
   2.0666666666666663E-005     6.1269009572487812E-021
   2.0866666666666661E-005     4.4479576872735229E-020
   2.1066666666666659E-005     8.2721009847844252E-020
   2.1266666666666664E-005     1.1256275654609487E-019
   2.1466666666666662E-005     1.2550082573817810E-019
   2.1666666666666660E-005     1.1460192057081797E-019
   2.1866666666666665E-005     7.6384601423618739E-020
   2.2066666666666663E-005     1.2411154016988154E-020
   2.2266666666666661E-005    -6.9824760151017166E-020
   2.2466666666666659E-005    -1.5707817384784873E-019
   2.2666666666666664E-005    -2.3182034804776836E-019
   2.2866666666666662E-005    -2.7498718928870635E-019
   2.3066666666666660E-005    -2.6972199279906190E-019
   2.3266666666666665E-005    -2.0553952396742517E-019
   2.3466666666666663E-005    -8.2107929340078931E-020
   2.3666666666666661E-005     8.8264439310602344E-020
   2.3866666666666660E-005     2.8028633727456904E-019
   2.4066666666666664E-005     4.5806907847983053E-019
   2.4266666666666662E-005     5.8036424130512496E-019
   2.4466666666666661E-005     6.0818422795373284E-019
   2.4666666666666665E-005     5.1370444898296947E-019
   2.4866666666666663E-005     2.8880656322418561E-019
   2.5066666666666662E-005    -4.8675411547511436E-020
   2.5266666666666660E-005    -4.5288917840558498E-019
   2.5466666666666665E-005    -8.5347206517024523E-019
   2.5666666666666663E-005    -1.1651223078807981E-018
   2.5866666666666661E-005    -1.3025054543348419E-018
   2.6066666666666666E-005    -1.1984411610915804E-018
   2.6266666666666664E-005    -8.2214558697283845E-019
   2.6466666666666662E-005    -1.9360135627281533E-019
   2.6666666666666660E-005     6.0987920574079679E-019
   2.6866666666666665E-005     1.4579586244300278E-018
   2.7066666666666663E-005     2.1837888785286882E-018
   2.7266666666666661E-005     2.6117039266274210E-018
   2.7466666666666666E-005     2.5924205257748443E-018
   2.7666666666666664E-005     2.0397180855348680E-018
   2.7866666666666662E-005     9.6104035667271609E-019
   2.8066666666666667E-005    -5.2570577409418335E-019
   2.8266666666666658E-005    -2.1954109835431311E-018
   2.8466666666666663E-005    -3.7422220825786922E-018
   2.8666666666666668E-005    -4.8279554229812644E-018
   2.8866666666666659E-005    -5.1462870781581995E-018
   2.9066666666666664E-005    -4.4920345998165908E-018
   2.9266666666666669E-005    -2.8218335574967107E-018
   2.9466666666666660E-005    -2.9188272564089614E-019
   2.9666666666666665E-005     2.7392021890264139E-018
   2.9866666666666656E-005     5.7490644804754223E-018
   3.0066666666666661E-005     8.1308278722612066E-018
   3.0266666666666666E-005     9.3031086427761485E-018
   3.0466666666666657E-005     8.8329845034351516E-018
   3.0666666666666662E-005     6.5484676864079120E-018
   3.0866666666666667E-005     2.6153727229979250E-018
   3.1066666666666658E-005    -2.4429673764637672E-018
   3.1266666666666663E-005    -7.7962116771258356E-018
   3.1466666666666668E-005    -1.2428121897620311E-017
   3.1666666666666659E-005    -1.5314037336118535E-017
   3.1866666666666664E-005    -1.5626635706175783E-017
   3.2066666666666656E-005    -1.2931860958605925E-017
   3.2266666666666660E-005    -7.3333554585268127E-018
   3.2466666666666665E-005     4.7157900913548932E-019
   3.2666666666666657E-005     9.2485422362394905E-018
   3.2866666666666661E-005     1.7399317670807765E-017
   3.3066666666666666E-005     2.3232668236082059E-017
   3.3266666666666658E-005     2.5290829207018975E-017
   3.3466666666666662E-005     2.2672785946985348E-017
   3.3666666666666667E-005     1.5288264144810116E-017
   3.3866666666666659E-005     3.9817658802456201E-018
   3.4066666666666664E-005    -9.5153663398924082E-018
   3.4266666666666668E-005    -2.2817323681265682E-017
   3.4466666666666660E-005    -3.3277122446530911E-017
   3.4666666666666665E-005    -3.8481737297091053E-017
   3.4866666666666656E-005    -3.6762072458860991E-017
   3.5066666666666661E-005    -2.7616732846777266E-017
   3.5266666666666666E-005    -1.1954129975715935E-017
   3.5466666666666657E-005     7.9178762131563143E-018
   3.5666666666666662E-005     2.8582911070359652E-017
   3.5866666666666667E-005     4.6062732338966980E-017
   3.6066666666666658E-005     5.6540405118237360E-017
   3.6266666666666663E-005     5.7136096377520132E-017
   3.6466666666666668E-005     4.6586905361946219E-017
   3.6666666666666659E-005     2.5683823694239516E-017
   3.6866666666666664E-005    -2.6486982529088692E-018
   3.7066666666666669E-005    -3.3687435268696826E-017
   3.7266666666666660E-005    -6.1639869946272533E-017
   3.7466666666666665E-005    -8.0668172186047802E-017
   3.7666666666666656E-005    -8.6037862277878418E-017
   3.7866666666666661E-005    -7.5177756845636741E-017
   3.8066666666666666E-005    -4.8431175958107768E-017
   3.8266666666666657E-005    -9.3159207706343026E-018
   3.8466666666666662E-005     3.5814480869229183E-017
   3.8666666666666667E-005     7.8707711158074181E-017
   3.8866666666666658E-005     1.1063158438353121E-016
   3.9066666666666663E-005     1.2404952218788812E-016
   3.9266666666666668E-005     1.1425286480052031E-016
   3.9466666666666659E-005     8.0623989328854608E-017
   3.9666666666666664E-005     2.7240489852803027E-017
   3.9866666666666655E-005    -3.7376472247427024E-017
   4.0066666666666660E-005    -1.0142016102584374E-016
   4.0266666666666665E-005    -1.5174642247062046E-016
   4.0466666666666656E-005    -1.7632826065309648E-016
   4.0666666666666661E-005    -1.6680158226572831E-016
   4.0866666666666666E-005    -1.2062115755665849E-016
   4.1066666666666657E-005    -4.2358278164381294E-017
   4.1266666666666662E-005     5.6219061144301144E-017
   4.1466666666666667E-005     1.5746230243162230E-016
   4.1666666666666658E-005     2.4048814928638127E-016
   4.1866666666666663E-005     2.8483311600267709E-016
   4.2066666666666668E-005     2.7456347264689481E-016
   4.2266666666666660E-005     2.0212716899219591E-016
   4.2466666666666664E-005     7.1188667114327602E-017
   4.2666666666666656E-005    -1.0223549849145585E-016
   4.2866666666666661E-005    -2.9080140960714614E-016
   4.3066666666666665E-005    -4.5916207583111759E-016
   4.3266666666666657E-005    -5.6933146751173199E-016
   4.3466666666666662E-005    -5.8742306853004667E-016
   4.3666666666666666E-005    -4.9075280514113819E-016
   4.3866666666666658E-005    -2.7408135580025774E-016
   4.4066666666666663E-005     4.6265998019245002E-017
   4.4266666666666667E-005     4.3148029667630123E-016
   4.4466666666666659E-005     8.2324004690828839E-016
   4.4666666666666664E-005     1.1506802775361262E-015
   4.4866666666666655E-005     1.3407962631787820E-015
   4.5066666666666660E-005     1.3310287120185729E-015
   4.5266666666666665E-005     1.0821959957405160E-015
   4.5466666666666656E-005     5.8958897103321794E-016
   4.5666666666666661E-005    -1.0999727987655600E-016
   4.5866666666666666E-005    -9.3718494288662573E-016
   4.6066666666666657E-005    -1.7760612245742388E-015
   4.6266666666666662E-005    -2.4875028597955759E-015
   4.6466666666666667E-005    -2.9287063205087578E-015
   4.6666666666666658E-005    -2.9766223663414156E-015
   4.6866666666666663E-005    -2.5519512707779377E-015
   4.7066666666666668E-005    -1.6397303233223734E-015
   4.7266666666666659E-005    -3.0248195910560861E-016
   4.7466666666666664E-005     1.3174886150935063E-015
   4.7666666666666655E-005     3.0087498978158775E-015
   4.7866666666666660E-005     4.5145746170630853E-015
   4.8066666666666665E-005     5.5679889971732062E-015
   4.8266666666666656E-005     5.9338402782623597E-015
   4.8466666666666661E-005     5.4518707583998310E-015
   4.8666666666666666E-005     4.0737107235971422E-015
   4.8866666666666657E-005     1.8866855855471373E-015
   4.9066666666666662E-005    -8.8148541697299170E-016
   4.9266666666666667E-005    -3.8805558283533484E-015
   4.9466666666666658E-005    -6.6783409189350948E-015
   4.9666666666666663E-005    -8.8202881103798089E-015
   4.9866666666666655E-005    -9.9004706634061038E-015
   5.0066666666666659E-005    -9.6335723588207110E-015
   5.0266666666666664E-005    -7.9157545381030830E-015
   5.0466666666666656E-005    -4.8626345965171545E-015
   5.0666666666666660E-005    -8.1511522869043547E-016
   5.0866666666666665E-005     3.6919238258285047E-015
   5.1066666666666657E-005     7.9971554347018918E-015
   5.1266666666666661E-005     1.1409258860985546E-014
   5.1466666666666666E-005     1.3319085498026501E-014
   5.1666666666666658E-005     1.3309951391749873E-014
   5.1866666666666662E-005     1.1246751347366365E-014
   5.2066666666666667E-005     7.3260551955427756E-015
   5.2266666666666659E-005     2.0741692303836559E-015
   5.2466666666666664E-005    -3.7122140168771849E-015
   5.2666666666666655E-005    -9.0785072107813381E-015
   5.2866666666666660E-005    -1.3063803983281627E-014
   5.3066666666666665E-005    -1.4869041892511094E-014
   5.3266666666666656E-005    -1.4013790241473388E-014
   5.3466666666666661E-005    -1.0452874809900200E-014
   5.3666666666666666E-005    -4.6280375895504658E-015
   5.3866666666666657E-005     2.5611353067013810E-015
   5.4066666666666662E-005     9.8700637654754782E-015
   5.4266666666666667E-005     1.5894544061216753E-014
   5.4466666666666658E-005     1.9303269174247063E-014
   5.4666666666666663E-005     1.9081461209771987E-014
   5.4866666666666668E-005     1.4744529703810038E-014
   5.5066666666666659E-005     6.4820047388570573E-015
   5.5266666666666664E-005    -4.7992952966804510E-015
   5.5466666666666655E-005    -1.7548930167767606E-014
   5.5666666666666660E-005    -2.9760582908630123E-014
   5.5866666666666665E-005    -3.9251686056327606E-014
   5.6066666666666656E-005    -4.3995423510467675E-014
   5.6266666666666661E-005    -4.2454445699324889E-014
   5.6466666666666666E-005    -3.3862976593073859E-014
   5.6666666666666657E-005    -1.8409763857122963E-014
   5.6866666666666662E-005     2.7106081749552752E-015
   5.7066666666666667E-005     2.7389999326977396E-014
   5.7266666666666658E-005     5.2831391940146380E-014
   5.7466666666666663E-005     7.5873140379963815E-014
   5.7666666666666654E-005     9.3364857034224063E-014
   5.7866666666666659E-005     1.0254030421184521E-013
   5.8066666666666664E-005     1.0133683057284896E-013
   5.8266666666666655E-005     8.8622959305655513E-014
   5.8466666666666660E-005     6.4317131717212446E-014
   5.8666666666666665E-005     2.9400740687696094E-014
   5.8866666666666656E-005    -1.4152157321789961E-014
   5.9066666666666661E-005    -6.3494921660926227E-014
   5.9266666666666666E-005    -1.1504598830967288E-013
   5.9466666666666657E-005    -1.6462192643013180E-013
   5.9666666666666662E-005    -2.0756488412050662E-013
   5.9866666666666667E-005    -2.3888773463556463E-013
   6.0066666666666659E-005    -2.5347963861306354E-013
   6.0266666666666663E-005    -2.4642551957914136E-013
   6.0466666666666655E-005    -2.1348506299523891E-013
   6.0666666666666660E-005    -1.5174858864174782E-013
   6.0866666666666664E-005    -6.0441345424317650E-014
   6.1066666666666656E-005     5.8211193491716293E-014
   6.1266666666666661E-005     1.9820371836130052E-013
   6.1466666666666665E-005     3.4924948038458072E-013
   6.1666666666666657E-005     4.9676678183989456E-013
   6.1866666666666662E-005     6.2254059364065265E-013
   6.2066666666666666E-005     7.0617623165492861E-013
   6.2266666666666658E-005     7.2734811668624480E-013
   6.2466666666666663E-005     6.6869854405911810E-013
   6.2666666666666668E-005     5.1908320622207021E-013
   6.2866666666666659E-005     2.7671787135124547E-013
   6.3066666666666664E-005    -4.8314615799983024E-014
   6.3266666666666655E-005    -4.3275622239199097E-013
   6.3466666666666660E-005    -8.4054959892743206E-013
   6.3666666666666665E-005    -1.2252043781537238E-012
   6.3866666666666656E-005    -1.5341980210344252E-012
   6.4066666666666661E-005    -1.7151309021011970E-012
   6.4266666666666666E-005    -1.7230186498708589E-012
   6.4466666666666657E-005    -1.5278126628144939E-012
   6.4666666666666662E-005    -1.1210476599628079E-012
   6.4866666666666667E-005    -5.2046912114086883E-013
   6.5066666666666658E-005     2.2836853963693683E-013
   6.5266666666666663E-005     1.0542252833273748E-012
   6.5466666666666654E-005     1.8662361041596781E-012
   6.5666666666666659E-005     2.5635485541065037E-012
   6.5866666666666664E-005     3.0475853642701698E-012
   6.6066666666666655E-005     3.2354607982145166E-012
   6.6266666666666660E-005     3.0727296229100823E-012
   6.6466666666666665E-005     2.5435492004538664E-012
   6.6666666666666656E-005     1.6765159761419133E-012
   6.6866666666666661E-005     5.4491963771192117E-013
   6.7066666666666666E-005    -7.3912192844286373E-013
   6.7266666666666657E-005    -2.0363206945564576E-012
   6.7466666666666662E-005    -3.1964358542426523E-012
   6.7666666666666667E-005    -4.0770501280803515E-012
   6.7866666666666658E-005    -4.5623732603363366E-012
   6.8066666666666663E-005    -4.5793772221091631E-012
   6.8266666666666655E-005    -4.1088079103875905E-012
   6.8466666666666659E-005    -3.1892663904548541E-012
   6.8666666666666664E-005    -1.9135231922160139E-012
   6.8866666666666656E-005    -4.1736411592749486E-013
   6.9066666666666660E-005     1.1375359631002887E-012
   6.9266666666666665E-005     2.5842976240904863E-012
   6.9466666666666657E-005     3.7720022170591196E-012
   6.9666666666666661E-005     4.5841691673922622E-012
   6.9866666666666666E-005     4.9517583094552691E-012
   7.0066666666666658E-005     4.8587963061204400E-012
   7.0266666666666662E-005     4.3399744546578495E-012
   7.0466666666666654E-005     3.4709434482257559E-012
   7.0666666666666659E-005     2.3533341616892338E-012
   7.0866666666666664E-005     1.0974800210819311E-012
   7.1066666666666655E-005    -1.9375825006458983E-013
   7.1266666666666660E-005    -1.4368677870215144E-012
   7.1466666666666665E-005    -2.5729756617627282E-012
   7.1666666666666656E-005    -3.5656096041388616E-012
   7.1866666666666661E-005    -4.3917142392169815E-012
   7.2066666666666666E-005    -5.0283077594584322E-012
   7.2266666666666657E-005    -5.4385213465621660E-012
   7.2466666666666662E-005    -5.5613323283090672E-012
   7.2666666666666667E-005    -5.3091139200417619E-012
   7.2866666666666658E-005    -4.5759222730313274E-012
   7.3066666666666663E-005    -3.2574827855438232E-012
   7.3266666666666654E-005    -1.2812644551032901E-012
   7.3466666666666659E-005     1.3576092148474389E-012
   7.3666666666666664E-005     4.5611258193805933E-012
   7.3866666666666655E-005     8.1018025045876373E-012
   7.4066666666666660E-005     1.1612794765549446E-011
   7.4266666666666665E-005     1.4601440615102962E-011
   7.4466666666666656E-005     1.6490052480011362E-011
   7.4666666666666661E-005     1.6683704085666967E-011
   7.4866666666666666E-005     1.4659922763587265E-011
   7.5066666666666657E-005     1.0070456551708802E-011
   7.5266666666666662E-005     2.8412009899385779E-012
   7.5466666666666653E-005    -6.7459249432088763E-012