  -3.3333333333333335E-005     0.0000000000000000     
  -3.3133333333333337E-005     0.0000000000000000     
  -3.2933333333333332E-005     0.0000000000000000     
  -3.2733333333333334E-005     0.0000000000000000     
  -3.2533333333333336E-005     0.0000000000000000     
  -3.2333333333333338E-005     0.0000000000000000     
  -3.2133333333333333E-005     0.0000000000000000     
  -3.1933333333333335E-005     0.0000000000000000     
  -3.1733333333333337E-005     0.0000000000000000     
  -3.1533333333333332E-005     0.0000000000000000     
  -3.1333333333333334E-005     0.0000000000000000     
  -3.1133333333333336E-005     0.0000000000000000     
  -3.0933333333333338E-005     0.0000000000000000     
  -3.0733333333333333E-005     0.0000000000000000     
  -3.0533333333333335E-005     0.0000000000000000     
  -3.0333333333333337E-005     0.0000000000000000     
  -3.0133333333333335E-005     0.0000000000000000     
  -2.9933333333333334E-005     0.0000000000000000     
  -2.9733333333333336E-005     0.0000000000000000     
  -2.9533333333333334E-005     0.0000000000000000     
  -2.9333333333333336E-005     0.0000000000000000     
  -2.9133333333333334E-005     0.0000000000000000     
  -2.8933333333333336E-005     0.0000000000000000     
  -2.8733333333333335E-005     0.0000000000000000     
  -2.8533333333333333E-005     0.0000000000000000     
  -2.8333333333333335E-005     0.0000000000000000     
  -2.8133333333333337E-005     0.0000000000000000     
  -2.7933333333333336E-005     0.0000000000000000     
  -2.7733333333333334E-005     0.0000000000000000     
  -2.7533333333333336E-005     0.0000000000000000     
  -2.7333333333333335E-005     0.0000000000000000     
  -2.7133333333333333E-005     0.0000000000000000     
  -2.6933333333333335E-005     0.0000000000000000     
  -2.6733333333333337E-005     0.0000000000000000     
  -2.6533333333333336E-005     0.0000000000000000     
  -2.6333333333333334E-005     0.0000000000000000     
  -2.6133333333333336E-005     0.0000000000000000     
  -2.5933333333333335E-005     0.0000000000000000     
  -2.5733333333333333E-005     0.0000000000000000     
  -2.5533333333333335E-005     0.0000000000000000     
  -2.5333333333333337E-005     0.0000000000000000     
  -2.5133333333333336E-005     0.0000000000000000     
  -2.4933333333333334E-005     0.0000000000000000     
  -2.4733333333333336E-005     0.0000000000000000     
  -2.4533333333333334E-005     0.0000000000000000     
  -2.4333333333333333E-005     0.0000000000000000     
  -2.4133333333333335E-005     0.0000000000000000     
  -2.3933333333333337E-005     0.0000000000000000     
  -2.3733333333333335E-005     0.0000000000000000     
  -2.3533333333333334E-005     0.0000000000000000     
  -2.3333333333333336E-005     0.0000000000000000     
  -2.3133333333333338E-005     0.0000000000000000     
  -2.2933333333333336E-005     0.0000000000000000     
  -2.2733333333333335E-005     0.0000000000000000     
  -2.2533333333333337E-005     0.0000000000000000     
  -2.2333333333333335E-005     0.0000000000000000     
  -2.2133333333333334E-005     0.0000000000000000     
  -2.1933333333333336E-005     0.0000000000000000     
  -2.1733333333333338E-005     0.0000000000000000     
  -2.1533333333333336E-005     0.0000000000000000     
  -2.1333333333333335E-005     0.0000000000000000     
  -2.1133333333333337E-005     0.0000000000000000     
  -2.0933333333333335E-005     0.0000000000000000     
  -2.0733333333333334E-005     0.0000000000000000     
  -2.0533333333333336E-005     0.0000000000000000     
  -2.0333333333333337E-005     0.0000000000000000     
  -2.0133333333333336E-005     0.0000000000000000     
  -1.9933333333333334E-005     0.0000000000000000     
  -1.9733333333333336E-005     0.0000000000000000     
  -1.9533333333333335E-005     0.0000000000000000     
  -1.9333333333333333E-005     0.0000000000000000     
  -1.9133333333333335E-005     0.0000000000000000     
  -1.8933333333333337E-005     0.0000000000000000     
  -1.8733333333333336E-005     0.0000000000000000     
  -1.8533333333333334E-005     0.0000000000000000     
  -1.8333333333333336E-005     0.0000000000000000     
  -1.8133333333333335E-005     0.0000000000000000     
  -1.7933333333333337E-005     0.0000000000000000     
  -1.7733333333333335E-005     0.0000000000000000     
  -1.7533333333333337E-005     0.0000000000000000     
  -1.7333333333333336E-005     0.0000000000000000     
  -1.7133333333333334E-005     0.0000000000000000     
  -1.6933333333333336E-005     0.0000000000000000     
  -1.6733333333333335E-005     0.0000000000000000     
  -1.6533333333333337E-005     0.0000000000000000     
  -1.6333333333333335E-005     0.0000000000000000     
  -1.6133333333333337E-005     0.0000000000000000     
  -1.5933333333333336E-005     0.0000000000000000     
  -1.5733333333333334E-005     0.0000000000000000     
  -1.5533333333333336E-005     0.0000000000000000     
  -1.5333333333333334E-005     0.0000000000000000     
  -1.5133333333333336E-005     0.0000000000000000     
  -1.4933333333333335E-005     0.0000000000000000     
  -1.4733333333333337E-005     0.0000000000000000     
  -1.4533333333333335E-005     0.0000000000000000     
  -1.4333333333333337E-005     0.0000000000000000     
  -1.4133333333333336E-005     0.0000000000000000     
  -1.3933333333333334E-005     0.0000000000000000     
  -1.3733333333333336E-005     0.0000000000000000     
  -1.3533333333333335E-005     0.0000000000000000     
  -1.3333333333333337E-005     0.0000000000000000     
  -1.3133333333333335E-005     0.0000000000000000     
  -1.2933333333333337E-005     0.0000000000000000     
  -1.2733333333333336E-005     0.0000000000000000     
  -1.2533333333333338E-005     0.0000000000000000     
  -1.2333333333333336E-005     0.0000000000000000     
  -1.2133333333333335E-005     0.0000000000000000     
  -1.1933333333333337E-005     0.0000000000000000     
  -1.1733333333333335E-005     0.0000000000000000     
  -1.1533333333333337E-005     0.0000000000000000     
  -1.1333333333333336E-005     0.0000000000000000     
  -1.1133333333333337E-005     0.0000000000000000     
  -1.0933333333333336E-005     0.0000000000000000     
  -1.0733333333333334E-005     0.0000000000000000     
  -1.0533333333333336E-005     0.0000000000000000     
  -1.0333333333333335E-005     0.0000000000000000     
  -1.0133333333333337E-005     0.0000000000000000     
  -9.9333333333333354E-006     0.0000000000000000     
  -9.7333333333333373E-006     0.0000000000000000     
  -9.5333333333333358E-006     0.0000000000000000     
  -9.3333333333333343E-006     0.0000000000000000     
  -9.1333333333333362E-006     0.0000000000000000     
  -8.9333333333333348E-006     0.0000000000000000     
  -8.7333333333333367E-006     0.0000000000000000     
  -8.5333333333333352E-006     0.0000000000000000     
  -8.3333333333333371E-006    -9.2378244188424005E-042
  -8.1333333333333356E-006    -1.9027666144046433E-041
  -7.9333333333333376E-006    -1.9027666144046433E-041
  -7.7333333333333361E-006     1.0554197594579125E-041
  -7.5333333333333346E-006     5.5579120133574196E-041
  -7.3333333333333365E-006     1.0486592276084129E-040
  -7.1333333333333351E-006     1.5303078458848131E-040
  -6.9333333333333370E-006     2.3519034849522844E-040
  -6.7333333333333355E-006     2.9249382680973666E-040
  -6.5333333333333374E-006    -7.1698246435550010E-040
  -6.3333333333333359E-006    -2.4063874262235001E-039
  -6.1333333333333379E-006    -4.3899160900211746E-039
  -5.9333333333333364E-006    -4.7618044721549366E-039
  -5.7333333333333349E-006    -3.2829093286805562E-039
  -5.5333333333333368E-006     8.8923262454686190E-040
  -5.3333333333333354E-006     1.3665398445433902E-038
  -5.1333333333333373E-006     1.8327123794531387E-038
  -4.9333333333333358E-006     1.8839118816530058E-038
  -4.7333333333333377E-006     2.1293713315902898E-038
  -4.5333333333333362E-006     9.7422657552540379E-039
  -4.3333333333333348E-006     1.2576800056734939E-038
  -4.1333333333333367E-006     1.2009187715966052E-038
  -3.9333333333333352E-006    -1.9757454513229370E-039
  -3.7333333333333371E-006    -2.0308930022895714E-038
  -3.5333333333333356E-006    -5.5080553027209062E-038
  -3.3333333333333376E-006    -1.1319264245112376E-037
  -3.1333333333333361E-006    -1.8649432973054298E-037
  -2.9333333333333346E-006    -2.5649492278067755E-037
  -2.7333333333333365E-006    -2.9055457482605571E-037
  -2.5333333333333384E-006    -2.4716672880526567E-037
  -2.3333333333333336E-006    -8.2447823594047302E-038
  -2.1333333333333355E-006     2.3614655595431039E-037
  -1.9333333333333374E-006     7.1187754347956739E-037
  -1.7333333333333393E-006     1.3005079246807116E-036
  -1.5333333333333345E-006     1.8923679858910684E-036
  -1.3333333333333364E-006     2.3020120950247792E-036
  -1.1333333333333383E-006     2.2731162666454797E-036
  -9.3333333333333343E-007     1.5077713217409470E-036
  -7.3333333333333535E-007    -2.7050380835426958E-037
  -5.3333333333333726E-007    -3.2162178994224428E-036
  -3.3333333333333918E-007    -7.2296114177530584E-036
  -1.3333333333333432E-007    -1.1813293250572366E-035
   6.6666666666663770E-008    -1.5956240672428914E-035
   2.6666666666666185E-007    -1.8100042660986659E-035
   4.6666666666666672E-007    -1.6252135253769858E-035
   6.6666666666666480E-007    -8.3059575317711043E-036
   8.6666666666666289E-007     7.3981909215943083E-036
   1.0666666666666610E-006     3.1289661621386851E-035
   1.2666666666666658E-006     6.1657588892622751E-035
   1.4666666666666639E-006     9.3806427675117300E-035
   1.6666666666666620E-006     1.1956511272579113E-034
   1.8666666666666669E-006     1.2750662936951176E-034
   2.0666666666666649E-006     1.0424021984626022E-034
   2.2666666666666630E-006     3.7042256734557041E-035
   2.4666666666666611E-006    -8.2135046854611996E-035
   2.6666666666666660E-006    -2.5160953298040613E-034
   2.8666666666666641E-006    -4.5468603736137917E-034
   3.0666666666666622E-006    -6.5549390346490946E-034
   3.2666666666666602E-006    -7.9774345035002028E-034
   3.4666666666666651E-006    -8.0839922495530676E-034
   3.6666666666666632E-006    -6.0801768774406267E-034
   3.8666666666666613E-006    -1.2863538087522609E-034
   4.0666666666666661E-006     6.6149370984123378E-034
   4.2666666666666642E-006     1.7292455211817423E-033
   4.4666666666666623E-006     2.9496439512311526E-033
   4.6666666666666604E-006     4.0886404594543372E-033
   4.8666666666666652E-006     4.8054428791258610E-033
   5.0666666666666633E-006     4.6840827124426836E-033
   5.2666666666666614E-006     3.3012433853266871E-033
   5.4666666666666663E-006     3.3142412019789670E-034
   5.6666666666666644E-006    -4.3186333733198717E-033
   5.8666666666666624E-006    -1.0366020173971431E-032
   6.0666666666666605E-006    -1.7030255915663970E-032
   6.2666666666666654E-006    -2.2976508659881113E-032
   6.4666666666666635E-006    -2.6369617123919962E-032
   6.6666666666666616E-006    -2.5079443857858436E-032
   6.8666666666666664E-006    -1.7059564673074536E-032
   7.0666666666666645E-006    -8.8839394781042442E-034
   7.2666666666666626E-006     2.3583208754312540E-032
   7.4666666666666607E-006     5.4586053926062527E-032
   7.6666666666666655E-006     8.7945453376018978E-032
   7.8666666666666636E-006     1.1694300875203166E-031
   8.0666666666666617E-006     1.3271844811810436E-031
   8.2666666666666598E-006     1.2535939906422692E-031
   8.4666666666666647E-006     8.5728869493449657E-032
   8.6666666666666627E-006     7.9295648639037931E-033
   8.8666666666666608E-006    -1.0788825742017087E-031
   9.0666666666666657E-006    -2.5287093591451724E-031
   9.2666666666666638E-006    -4.0763027572012865E-031
   9.4666666666666619E-006    -5.4200070092623252E-031
   9.6666666666666599E-006    -6.1711045367521115E-031
   9.8666666666666648E-006    -5.9027009300172186E-031
   1.0066666666666663E-005    -4.2276694548761197E-031
   1.0266666666666661E-005    -9.0041950043306320E-032
   1.0466666666666666E-005     4.0700158092115378E-031
   1.0666666666666664E-005     1.0315603614829866E-030
   1.0866666666666662E-005     1.7039799060278029E-030
   1.1066666666666660E-005     2.3011946253723806E-030
   1.1266666666666665E-005     2.6652404064096365E-030
   1.1466666666666663E-005     2.6226455785385768E-030
   1.1666666666666661E-005     2.0148962508375695E-030
   1.1866666666666666E-005     7.3788378914602487E-031
   1.2066666666666664E-005    -1.2144680171385012E-030
   1.2266666666666662E-005    -3.7099997094455424E-030
   1.2466666666666660E-005    -6.4513579758242524E-030
   1.2666666666666665E-005    -8.9731317312355780E-030
   1.2866666666666663E-005    -1.0673032040742097E-029
   1.3066666666666661E-005    -1.0883719108908086E-029
   1.3266666666666666E-005    -8.9857038139825260E-030
   1.3466666666666664E-005    -4.5532733291128949E-030
   1.3666666666666662E-005     2.4848118033269859E-030
   1.3866666666666660E-005     1.1698033595585819E-029
   1.4066666666666665E-005     2.2056271657074636E-029
   1.4266666666666663E-005     3.1920160288935462E-029
   1.4466666666666661E-005     3.9153794595433965E-029
   1.4666666666666666E-005     4.1380146558742857E-029
   1.4866666666666664E-005     3.6376328343509213E-029
   1.5066666666666662E-005     2.2575162281939509E-029
   1.5266666666666661E-005    -3.9541979575541362E-031
   1.5466666666666665E-005    -3.1234461398307160E-029
   1.5666666666666663E-005    -6.6670852114425334E-029
   1.5866666666666662E-005    -1.0146757135163336E-028
   1.6066666666666660E-005    -1.2882172521088209E-028
   1.6266666666666665E-005    -1.4120071422633370E-028
   1.6466666666666663E-005    -1.3157549921494619E-028
   1.6666666666666661E-005    -9.4916837977123612E-029
   1.6866666666666666E-005    -2.9728348308622357E-029
   1.7066666666666664E-005     6.0679897761528240E-029
   1.7266666666666662E-005     1.6749496566276262E-028
   1.7466666666666660E-005     2.7656163971830346E-028
   1.7666666666666665E-005     3.6956964532831114E-028
   1.7866666666666663E-005     4.2626672010583460E-028
   1.8066666666666661E-005     4.2749267792525318E-028
   1.8266666666666666E-005     3.5862886634235079E-028
   1.8466666666666664E-005     2.1291603869428569E-028
   1.8666666666666662E-005    -5.9578820141003348E-030
   1.8866666666666660E-005    -2.8251144670051707E-028
   1.9066666666666665E-005    -5.8967617250725202E-028
   1.9266666666666663E-005    -8.9057846419882917E-028
   1.9466666666666661E-005    -1.1416201109088017E-027
   1.9666666666666666E-005    -1.2963620829894754E-027
   1.9866666666666664E-005    -1.3096846779475565E-027
   2.0066666666666662E-005    -1.1418644622210887E-027
   2.0266666666666660E-005    -7.6260724764315398E-028
   2.0466666666666665E-005    -1.5554051542113183E-028
   2.0666666666666663E-005     6.7596056235509013E-028
   2.0866666666666661E-005     1.7007409787348181E-027
   2.1066666666666659E-005     2.8493524345393152E-027
   2.1266666666666664E-005     4.0021228745150986E-027
   2.1466666666666662E-005     4.9788698669083727E-027
   2.1666666666666660E-005     5.5355280118813730E-027
   2.1866666666666665E-005     5.3748988714079295E-027
   2.2066666666666663E-005     4.1791489601849887E-027
   2.2266666666666661E-005     1.6698851189291003E-027
   2.2466666666666659E-005    -2.3032312280084112E-027
   2.2666666666666664E-005    -7.6525211365956824E-027
   2.2866666666666662E-005    -1.3938888532625970E-026
   2.3066666666666660E-005    -2.0284153964241515E-026
   2.3266666666666665E-005    -2.5347129389742474E-026
   2.3466666666666663E-005    -2.7404468410095324E-026
   2.3666666666666661E-005    -2.4569814043814222E-026
   2.3866666666666660E-005    -1.5164993074487798E-026
   2.4066666666666664E-005     1.7765136501880671E-027
   2.4266666666666662E-005     2.5937727253237599E-026
   2.4466666666666661E-005     5.5189263955546027E-026
   2.4666666666666665E-005     8.5255500532287470E-026
   2.4866666666666663E-005     1.0974714606799204E-025
   2.5066666666666662E-005     1.2071583975050871E-025
   2.5266666666666660E-005     1.0982491977259416E-025
   2.5466666666666665E-005     7.0118979669301709E-026
   2.5666666666666663E-005    -1.7787876353635815E-027
   2.5866666666666661E-005    -1.0338653240506488E-025
   2.6066666666666666E-005    -2.2450675094829169E-025
   2.6266666666666664E-005    -3.4639928919010522E-025
   2.6466666666666662E-005    -4.4258761624990622E-025
   2.6666666666666660E-005    -4.8174891822557414E-025
   2.6866666666666665E-005    -4.3282511399570755E-025
   2.7066666666666663E-005    -2.7202654851308901E-025
   2.7266666666666661E-005     9.1585322124549456E-027
   2.7466666666666666E-005     3.9638981593256041E-025
   2.7666666666666664E-005     8.4719354681541741E-025
   2.7866666666666662E-005     1.2899678032344630E-024
   2.8066666666666667E-005     1.6289940540759761E-024
   2.8266666666666658E-005     1.7564161642482681E-024
   2.8466666666666663E-005     1.5709229774095291E-024
   2.8666666666666668E-005     1.0012989530459076E-024
   2.8866666666666659E-005     3.1349967993685599E-026
   2.9066666666666664E-005    -1.2787049545574038E-024
   2.9266666666666669E-005    -2.7800348462050667E-024
   2.9466666666666660E-005    -4.2376048205898531E-024
   2.9666666666666665E-005    -5.3510816890545470E-024
   2.9866666666666656E-005    -5.7953415806205684E-024
   3.0066666666666661E-005    -5.2778392093198340E-024
   3.0266666666666666E-005    -3.6057997821977558E-024
   3.0466666666666657E-005    -7.5221588108458201E-025
   3.0666666666666662E-005     3.0930268398608051E-024
   3.0866666666666667E-005     7.5010585410020091E-024
   3.1066666666666658E-005     1.1822717612322966E-023
   3.1266666666666663E-005     1.5254336624725745E-023
   3.1466666666666668E-005     1.6948894408292380E-023
   3.1666666666666659E-005     1.6161259627801176E-023
   3.1866666666666664E-005     1.2407014143287733E-023
   3.2066666666666656E-005     5.6072995215218813E-024
   3.2266666666666660E-005    -3.8106393182876825E-024
   3.2466666666666665E-005    -1.4884607836382227E-023
   3.2666666666666657E-005    -2.6178653029702878E-023
   3.2866666666666661E-005    -3.5938280810847539E-023
   3.3066666666666666E-005    -4.2325937740802131E-023
   3.3266666666666658E-005    -4.3705666979359495E-023
   3.3466666666666662E-005    -3.8932116655111380E-023
   3.3666666666666667E-005    -2.7592749266000366E-023
   3.3866666666666659E-005    -1.0156364431692265E-023
   3.4066666666666664E-005     1.2005293247319021E-023
   3.4266666666666668E-005     3.6732749618552993E-023
   3.4466666666666660E-005     6.1314140921980992E-023
   3.4666666666666665E-005     8.2798422151241996E-023
   3.4866666666666656E-005     9.8327608586623155E-023
   3.5066666666666661E-005     1.0542618310389116E-022
   3.5266666666666666E-005     1.0219938912794693E-022
   3.5466666666666657E-005     8.7421469470439835E-023
   3.5666666666666662E-005     6.0533354932100411E-023
   3.5866666666666667E-005     2.1606917560945790E-023
   3.6066666666666658E-005    -2.8641472083968015E-023
   3.6266666666666663E-005    -8.8704750456371258E-023
   3.6466666666666668E-005    -1.5595441687263358E-022
   3.6666666666666659E-005    -2.2613711472023598E-022
   3.6866666666666664E-005    -2.9279830165272006E-022
   3.7066666666666669E-005    -3.4682663237565183E-022
   3.7266666666666660E-005    -3.7638564215701813E-022
   3.7466666666666665E-005    -3.6752386305369038E-022
   3.7666666666666656E-005    -3.0570503673851886E-022
   3.7866666666666661E-005    -1.7836355626284488E-022
   3.8066666666666666E-005     2.1631195837335749E-023
   3.8266666666666657E-005     2.9199646598663109E-022
   3.8466666666666662E-005     6.1722707453992471E-022
   3.8666666666666667E-005     9.6587286292615892E-022
   3.8866666666666658E-005     1.2899284306601680E-021
   3.9066666666666663E-005     1.5272740032473473E-021
   3.9266666666666668E-005     1.6077960857630988E-021
   3.9466666666666659E-005     1.4632639169049702E-021
   3.9666666666666664E-005     1.0403081303363415E-021
   3.9866666666666655E-005     3.1502350363507272E-022
   4.0066666666666660E-005    -6.9304882055256770E-022
   4.0266666666666665E-005    -1.9103567322244001E-021
   4.0466666666666656E-005    -3.2051521372159207E-021
   4.0666666666666661E-005    -4.3922989601938551E-021
   4.0866666666666666E-005    -5.2487808877686454E-021
   4.1066666666666657E-005    -5.5401462078709396E-021
   4.1266666666666662E-005    -5.0562675485570572E-021
   4.1466666666666667E-005    -3.6527677355460653E-021
   4.1666666666666658E-005    -1.2925849479722939E-021
   4.1866666666666663E-005     1.9192131713838295E-021
   4.2066666666666668E-005     5.7147812115317926E-021
   4.2266666666666660E-005     9.6638191053508567E-021
   4.2466666666666664E-005     1.3199874070527267E-020
   4.2666666666666656E-005     1.5674571207811160E-020
   4.2866666666666661E-005     1.6437777527277360E-020
   4.3066666666666665E-005     1.4937241921610513E-020
   4.3266666666666657E-005     1.0826825894684822E-020
   4.3466666666666662E-005     4.0688267101198123E-021
   4.3666666666666666E-005    -4.9863226914632852E-021
   4.3866666666666658E-005    -1.5559915020985828E-020
   4.4066666666666663E-005    -2.6459086015520132E-020
   4.4266666666666667E-005    -3.6155193758405648E-020
   4.4466666666666659E-005    -4.2929334553649316E-020
   4.4666666666666664E-005    -4.5078957452121272E-020
   4.4866666666666655E-005    -4.1169721212717257E-020
   4.5066666666666660E-005    -3.0306914872062993E-020
   4.5266666666666665E-005    -1.2392516911004966E-020
   4.5466666666666656E-005     1.1671555966041072E-020
   4.5666666666666661E-005     3.9874890055582158E-020
   4.5866666666666666E-005     6.9121890118160970E-020
   4.6066666666666657E-005     9.5414698171829763E-020
   4.6266666666666662E-005     1.1420811830019311E-019
   4.6466666666666667E-005     1.2092836751297742E-019
   4.6666666666666658E-005     1.1162300834807923E-019
   4.6866666666666663E-005     8.3683134581886193E-020
   4.7066666666666668E-005     3.6554504587948505E-020
   4.7266666666666659E-005    -2.7665782973672600E-020
   4.7466666666666664E-005    -1.0386081386046037E-019
   4.7666666666666655E-005    -1.8386488481242447E-019
   4.7866666666666660E-005    -2.5686679693966306E-019
   4.8066666666666665E-005    -3.1030076743065493E-019
   4.8266666666666656E-005    -3.3122603586881943E-019
   4.8466666666666661E-005    -3.0812445877577644E-019
   4.8666666666666666E-005    -2.3296733007869369E-019
   4.8866666666666657E-005    -1.0332075461247149E-019
   4.9066666666666662E-005     7.5808650462988465E-020
   4.9266666666666667E-005     2.9073022977378520E-019
   4.9466666666666658E-005     5.1877502437301530E-019
   4.9666666666666663E-005     7.2925250236939970E-019
   4.9866666666666655E-005     8.8585670907886048E-019
   5.0066666666666659E-005     9.5055739470286671E-019
   5.0266666666666664E-005     8.8880046330404939E-019
   5.0466666666666656E-005     6.7559812871174583E-019
   5.0666666666666660E-005     3.0184079502111837E-019
   5.0866666666666665E-005    -2.2004913236346273E-019
   5.1066666666666657E-005    -8.5214249779413809E-019
   5.1266666666666661E-005    -1.5297485109723347E-018
   5.1466666666666666E-005    -2.1637950778372261E-018
   5.1666666666666658E-005    -2.6474610606031822E-018
   5.1866666666666662E-005    -2.8672078367408418E-018
   5.2066666666666667E-005    -2.7177453883550594E-018
   5.2266666666666659E-005    -2.1197693496848513E-018
   5.2466666666666664E-005    -1.0385887608016870E-018
   5.2666666666666655E-005     4.9883950699891895E-019
   5.2866666666666660E-005     2.3913741552518658E-018
   5.3066666666666665E-005     4.4586314787062648E-018
   5.3266666666666656E-005     6.4460708426909360E-018
   5.3466666666666661E-005     8.0421003245898631E-018
   5.3666666666666666E-005     8.9078360860288569E-018
   5.3866666666666657E-005     8.7184961617295117E-018
   5.4066666666666662E-005     7.2135186147127990E-018
   5.4266666666666667E-005     4.2505235541915648E-018
   5.4466666666666658E-005    -1.4349983651480609E-019
   5.4666666666666663E-005    -5.7316615106333477E-018
   5.4866666666666668E-005    -1.2045631129263200E-017
   5.5066666666666659E-005    -1.8390864538227555E-017
   5.5266666666666664E-005    -2.3884587093357625E-017
   5.5466666666666655E-005    -2.7529513380002402E-017
   5.5666666666666660E-005    -2.8322121901744619E-017
   5.5866666666666665E-005    -2.5389309033287935E-017
   5.6066666666666656E-005    -1.8141896553716383E-017
   5.6266666666666661E-005    -6.4283237010809398E-018
   5.6466666666666666E-005     9.3322134004593176E-018
   5.6666666666666657E-005     2.8060312329748883E-017
   5.6866666666666662E-005     4.7993483589174095E-017
   5.7066666666666667E-005     6.6749488669096132E-017
   5.7266666666666658E-005     8.1488839392239230E-017
   5.7466666666666663E-005     8.9179324721252240E-017
   5.7666666666666654E-005     8.6952614524700295E-017
   5.7866666666666659E-005     7.2528203539635604E-017
   5.8066666666666664E-005     4.4665091511470760E-017
   5.8266666666666655E-005     3.5880189928149082E-018
   5.8466666666666660E-005    -4.8674368054083993E-017
   5.8666666666666665E-005    -1.0810588634895620E-016
   5.8866666666666656E-005    -1.6873568131895731E-016
   5.9066666666666661E-005    -2.2293633139174139E-016
   5.9266666666666666E-005    -2.6201242062143440E-016
   5.9466666666666657E-005    -2.7707281498237618E-016
   5.9666666666666662E-005    -2.6014079121650381E-016
   5.9866666666666667E-005    -2.0541398354636531E-016
   6.0066666666666659E-005    -1.1054532506573960E-016
   6.0266666666666663E-005     2.2217063509075463E-017
   6.0466666666666655E-005     1.8521259970777600E-016
   6.0666666666666660E-005     3.6505603570099598E-016
   6.0866666666666664E-005     5.4298882284725350E-016
   6.1066666666666656E-005     6.9600329625816833E-016
   6.1266666666666661E-005     7.9877361938396550E-016
   6.1466666666666665E-005     8.2633044356151320E-016
   6.1666666666666657E-005     7.5730650570697508E-016
   6.1866666666666662E-005     5.7746729515153484E-016
   6.2066666666666666E-005     2.8314136983991138E-016
   6.2266666666666658E-005    -1.1590748533369090E-016
   6.2466666666666663E-005    -5.9465380111657376E-016
   6.2666666666666668E-005    -1.1124898924639284E-015
   6.2866666666666659E-005    -1.6147793758971858E-015
   6.3066666666666664E-005    -2.0364957866973485E-015
   6.3266666666666655E-005    -2.3079407665593142E-015
   6.3466666666666660E-005    -2.3622736133823237E-015
   6.3666666666666665E-005    -2.1443032736060488E-015
   6.3866666666666656E-005    -1.6197233142045462E-015
   6.4066666666666661E-005    -7.8375276204513241E-016
   6.4266666666666666E-005     3.3199939017879955E-016
   6.4466666666666657E-005     1.6556393187600398E-015
   6.4666666666666662E-005     3.0751380460290486E-015
   6.4866666666666667E-005     4.4433203659651284E-015
   6.5066666666666658E-005     5.5880603797980534E-015
   6.5266666666666663E-005     6.3274961701549657E-015
   6.5466666666666654E-005     6.4894474732446490E-015
   6.5666666666666659E-005     5.9335566811615156E-015
   6.5866666666666664E-005     4.5740807662063650E-015
   6.6066666666666655E-005     2.4007955210038238E-015
   6.6266666666666660E-005    -5.0478428020629157E-016
   6.6466666666666665E-005    -3.9606289811921037E-015
   6.6666666666666656E-005    -7.6852771521530963E-015
   6.6866666666666661E-005    -1.1310493973279194E-014
   6.7066666666666666E-005    -1.4406208205849340E-014
   6.7266666666666657E-005    -1.6517174902559285E-014
   6.7466666666666662E-005    -1.7209370744541573E-014
   6.7666666666666667E-005    -1.6122686323909027E-014
   6.7866666666666658E-005    -1.3025182958303522E-014
   6.8066666666666663E-005    -7.8631533360299638E-015
   6.8266666666666655E-005    -8.0069655189925836E-016
   6.8466666666666659E-005     7.7574243403002371E-015
   6.8666666666666664E-005     1.7165135115317258E-014
   6.8866666666666656E-005     2.6560620178827987E-014
   6.9066666666666660E-005     3.4919984860847253E-014
   6.9266666666666665E-005     4.1138155518273871E-014
   6.9466666666666657E-005     4.4133119009328208E-014
   6.9666666666666661E-005     4.2966416164642945E-014
   6.9866666666666666E-005     3.6969870647955704E-014
   7.0066666666666658E-005     2.5866230716127975E-014
   7.0266666666666662E-005     9.8698058634618341E-015
   7.0466666666666654E-005    -1.0246879239546926E-014
   7.0666666666666659E-005    -3.3133390795189616E-014
   7.0866666666666664E-005    -5.6898823704281984E-014
   7.1066666666666655E-005    -7.9212355269427765E-014
   7.1266666666666660E-005    -9.7467364475573274E-014
   7.1466666666666665E-005    -1.0900315844419345E-013
   7.1666666666666656E-005    -1.1137129857903742E-013
   7.1866666666666661E-005    -1.0262685149788621E-013
   7.2066666666666666E-005    -8.1618946256082599E-014
   7.2266666666666657E-005    -4.8250866561824349E-014
   7.2466666666666662E-005    -3.6778448792521154E-015
   7.2666666666666667E-005     4.9588303440931401E-014
   7.2866666666666658E-005     1.0769426169681306E-013
   7.3066666666666663E-005     1.6559912422953732E-013
   7.3266666666666654E-005     2.1737537987556465E-013
   7.3466666666666659E-005     2.5665199595837954E-013
   7.3666666666666664E-005     2.7717928827392584E-013
   7.3866666666666655E-005     2.7348000501455786E-013
   7.4066666666666660E-005     2.4153597788264870E-013
   7.4266666666666665E-005     1.7944819004430616E-013
   7.4466666666666656E-005     8.7999398152862410E-014
   7.4666666666666661E-005    -2.8952948213767148E-014
   7.4866666666666666E-005    -1.6432170666527968E-013
   7.5066666666666657E-005    -3.0792933660425912E-013
   7.5266666666666662E-005    -4.4697750507985271E-013
   7.5466666666666653E-005    -5.6685760895611259E-013