  -3.3333333333333335E-005     0.0000000000000000     
  -3.3133333333333337E-005     0.0000000000000000     
  -3.2933333333333332E-005     0.0000000000000000     
  -3.2733333333333334E-005     0.0000000000000000     
  -3.2533333333333336E-005     0.0000000000000000     
  -3.2333333333333338E-005     0.0000000000000000     
  -3.2133333333333333E-005     0.0000000000000000     
  -3.1933333333333335E-005     0.0000000000000000     
  -3.1733333333333337E-005     0.0000000000000000     
  -3.1533333333333332E-005     0.0000000000000000     
  -3.1333333333333334E-005     0.0000000000000000     
  -3.1133333333333336E-005     0.0000000000000000     
  -3.0933333333333338E-005     0.0000000000000000     
  -3.0733333333333333E-005     0.0000000000000000     
  -3.0533333333333335E-005     0.0000000000000000     
  -3.0333333333333337E-005     0.0000000000000000     
  -3.0133333333333335E-005     0.0000000000000000     
  -2.9933333333333334E-005     0.0000000000000000     
  -2.9733333333333336E-005     0.0000000000000000     
  -2.9533333333333334E-005     0.0000000000000000     
  -2.9333333333333336E-005     0.0000000000000000     
  -2.9133333333333334E-005     0.0000000000000000     
  -2.8933333333333336E-005     0.0000000000000000     
  -2.8733333333333335E-005     0.0000000000000000     
  -2.8533333333333333E-005     0.0000000000000000     
  -2.8333333333333335E-005     0.0000000000000000     
  -2.8133333333333337E-005     0.0000000000000000     
  -2.7933333333333336E-005     0.0000000000000000     
  -2.7733333333333334E-005     0.0000000000000000     
  -2.7533333333333336E-005     0.0000000000000000     
  -2.7333333333333335E-005     0.0000000000000000     
  -2.7133333333333333E-005     0.0000000000000000     
  -2.6933333333333335E-005     0.0000000000000000     
  -2.6733333333333337E-005     0.0000000000000000     
  -2.6533333333333336E-005     0.0000000000000000     
  -2.6333333333333334E-005     0.0000000000000000     
  -2.6133333333333336E-005     0.0000000000000000     
  -2.5933333333333335E-005     0.0000000000000000     
  -2.5733333333333333E-005     0.0000000000000000     
  -2.5533333333333335E-005     0.0000000000000000     
  -2.5333333333333337E-005     0.0000000000000000     
  -2.5133333333333336E-005     0.0000000000000000     
  -2.4933333333333334E-005     1.2968133559284641E-041
  -2.4733333333333336E-005     3.2391542373758082E-041
  -2.4533333333333334E-005    -9.7681887087221697E-042
  -2.4333333333333333E-005    -1.6072863818244578E-041
  -2.4133333333333335E-005    -4.0657259444680297E-040
  -2.3933333333333337E-005    -1.4362307805786892E-039
  -2.3733333333333335E-005    -2.5592840376467272E-039
  -2.3533333333333334E-005    -3.4531014652841495E-039
  -2.3333333333333336E-005    -3.4061810809073844E-040
  -2.3133333333333338E-005     1.4238503831579531E-038
  -2.2933333333333336E-005     5.2906538785673977E-038
  -2.2733333333333335E-005     1.3682048910413914E-037
  -2.2533333333333337E-005     2.6978433953413260E-037
  -2.2333333333333335E-005     4.1846375928726436E-037
  -2.2133333333333334E-005     4.3291908906679981E-037
  -2.1933333333333336E-005    -7.5287581179992416E-038
  -2.1733333333333338E-005    -1.8031866370310967E-036
  -2.1533333333333336E-005    -5.6613029399066988E-036
  -2.1333333333333335E-005    -1.2202146668491216E-035
  -2.1133333333333337E-005    -2.0200829775450575E-035
  -2.0933333333333335E-005    -2.4138359192276414E-035
  -2.0733333333333334E-005    -1.0981584342419132E-035
  -2.0533333333333336E-005     4.1881006956467330E-035
  -2.0333333333333337E-005     1.6332378405595163E-034
  -2.0133333333333336E-005     3.7293213398864853E-034
  -1.9933333333333334E-005     6.4540400586270558E-034
  -1.9733333333333336E-005     8.5147565273649620E-034
  -1.9533333333333335E-005     6.8657141554482263E-034
  -1.9333333333333333E-005    -3.7278111709794454E-034
  -1.9133333333333335E-005    -3.0033364193152178E-033
  -1.8933333333333337E-005    -7.7391678549005106E-033
  -1.8733333333333336E-005    -1.4319732200252474E-032
  -1.8533333333333334E-005    -2.0641569234992374E-032
  -1.8333333333333336E-005    -2.1511071292455298E-032
  -1.8133333333333335E-005    -7.8232457572788672E-033
  -1.7933333333333337E-005     3.2641342997593342E-032
  -1.7733333333333335E-005     1.1111331892055191E-031
  -1.7533333333333337E-005     2.2874534678253312E-031
  -1.7333333333333336E-005     3.6199851745914424E-031
  -1.7133333333333334E-005     4.4489652308724054E-031
  -1.6933333333333336E-005     3.5553803505101475E-031
  -1.6733333333333335E-005    -7.9365951447619733E-032
  -1.6533333333333337E-005    -1.0427344210224789E-030
  -1.6333333333333335E-005    -2.6288339679964476E-030
  -1.6133333333333337E-005    -4.6803023775537192E-030
  -1.5933333333333336E-005    -6.5805403166968138E-030
  -1.5733333333333334E-005    -7.0689342039918535E-030
  -1.5533333333333336E-005    -4.2066695107362374E-030
  -1.5333333333333334E-005     4.3258415959847517E-030
  -1.5133333333333336E-005     2.0408033754430237E-029
  -1.4933333333333335E-005     4.4021953277543539E-029
  -1.4733333333333337E-005     7.1260107814966154E-029
  -1.4533333333333335E-005     9.2268983619167395E-029
  -1.4333333333333337E-005     9.0081592507470302E-029
  -1.4133333333333336E-005     4.1758401227712553E-029
  -1.3933333333333334E-005    -7.6532369964939866E-029
  -1.3733333333333336E-005    -2.7922784543152670E-028
  -1.3533333333333335E-005    -5.5586777882043840E-028
  -1.3333333333333337E-005    -8.5270646147012249E-028
  -1.3133333333333335E-005    -1.0570369543844202E-027
  -1.2933333333333337E-005    -9.9336743493012454E-028
  -1.2733333333333336E-005    -4.4310917195019036E-028
  -1.2533333333333338E-005     8.0089349096992357E-028
  -1.2333333333333336E-005     2.8388617313285476E-027
  -1.2133333333333335E-005     5.5331651625869708E-027
  -1.1933333333333337E-005     8.3658817473104478E-027
  -1.1733333333333335E-005     1.0331542782892346E-026
  -1.1533333333333337E-005     9.9337204859637208E-027
  -1.1333333333333336E-005     5.3663914936498421E-027
  -1.1133333333333337E-005    -5.0474797314777019E-027
  -1.0933333333333336E-005    -2.2128780248728084E-026
  -1.0733333333333334E-005    -4.4876903617647973E-026
  -1.0533333333333336E-005    -6.9438290385322155E-026
  -1.0333333333333335E-005    -8.8329953893430282E-026
  -1.0133333333333337E-005    -9.0380679201116054E-026
  -9.9333333333333354E-006    -6.1935377519054372E-026
  -9.7333333333333373E-006     1.0178962602021785E-026
  -9.5333333333333358E-006     1.3368353473916400E-025
  -9.3333333333333343E-006     3.0415254861331710E-025
  -9.1333333333333362E-006     4.9767672051969093E-025
  -8.9333333333333348E-006     6.6497612175487869E-025
  -8.7333333333333367E-006     7.3005559479576249E-025
  -8.5333333333333352E-006     5.9713651229229512E-025
  -8.3333333333333371E-006     1.6936038608442762E-025
  -8.1333333333333356E-006    -6.1887762154041904E-025
  -7.9333333333333376E-006    -1.7576296796565311E-024
  -7.7333333333333361E-006    -3.1122245597314406E-024
  -7.5333333333333346E-006    -4.3830541045294385E-024
  -7.3333333333333365E-006    -5.0946202597543337E-024
  -7.1333333333333351E-006    -4.6377231862265185E-024
  -6.9333333333333370E-006    -2.3860327791701940E-024
  -6.7333333333333355E-006     2.1039482539095271E-024
  -6.5333333333333374E-006     8.8244095343114778E-024
  -6.3333333333333359E-006     1.7028462411128818E-023
  -6.1333333333333379E-006     2.5011287204730555E-023
  -5.9333333333333364E-006     3.0080595330930280E-023
  -5.7333333333333349E-006     2.8845638432954102E-023
  -5.5333333333333368E-006     1.7921115730711838E-023
  -5.3333333333333354E-006    -4.9460374880307487E-024
  -5.1333333333333373E-006    -3.9464797355640034E-023
  -4.9333333333333358E-006    -8.1424726057764445E-023
  -4.7333333333333377E-006    -1.2185577030531600E-022
  -4.5333333333333362E-006    -1.4732263604858684E-022
  -4.3333333333333348E-006    -1.4189266842556283E-022
  -4.1333333333333367E-006    -9.1029899893941856E-023
  -3.9333333333333352E-006     1.2877979872869948E-023
  -3.7333333333333371E-006     1.6439254792406592E-022
  -3.5333333333333356E-006     3.4010984926068228E-022
  -3.3333333333333376E-006     4.9731328834301064E-022
  -3.1333333333333361E-006     5.7853596307516694E-022
  -2.9333333333333346E-006     5.2349464015757545E-022
  -2.7333333333333365E-006     2.8797840594706971E-022
  -2.5333333333333384E-006    -1.3344830646159319E-022
  -2.3333333333333336E-006    -6.8707814293135653E-022
  -2.1333333333333355E-006    -1.2505034410080778E-021
  -1.9333333333333374E-006    -1.6427806732266915E-021
  -1.7333333333333393E-006    -1.6605799214699616E-021
  -1.5333333333333345E-006    -1.1402898791558971E-021
  -1.3333333333333364E-006    -3.6441119861682410E-023
  -1.1333333333333383E-006     1.5041351059395461E-021
  -9.3333333333333343E-007     3.1020729426010089E-021
  -7.3333333333333535E-007     4.1715805620964545E-021
  -5.3333333333333726E-007     4.0375208646352711E-021
  -3.3333333333333918E-007     2.1472114952812024E-021
  -1.3333333333333432E-007    -1.6523698836448601E-021
   6.6666666666663770E-008    -6.8407358512381827E-021
   2.6666666666666185E-007    -1.2056783519407545E-020
   4.6666666666666672E-007    -1.5156649759674775E-020
   6.6666666666666480E-007    -1.3594630950913740E-020
   8.6666666666666289E-007    -5.1593957271848013E-021
   1.0666666666666610E-006     1.1013005769170591E-020
   1.2666666666666658E-006     3.3366909486372200E-020
   1.4666666666666639E-006     5.7145710008032505E-020
   1.6666666666666620E-006     7.4328429899410684E-020
   1.8666666666666669E-006     7.4678174042184331E-020
   2.0666666666666649E-006     4.8112694262971949E-020
   2.2666666666666630E-006    -1.1737960828436293E-020
   2.4666666666666611E-006    -1.0338852251187572E-019
   2.6666666666666660E-006    -2.1386011182164875E-019
   2.8666666666666641E-006    -3.1699809284706217E-019
   3.0666666666666622E-006    -3.7524782986850361E-019
   3.2666666666666602E-006    -3.4598263390245270E-019
   3.4666666666666651E-006    -1.9252568600831888E-019
   3.6666666666666632E-006     1.0141741282197186E-019
   3.8666666666666613E-006     5.1685775033609446E-019
   4.0666666666666661E-006     9.8855923273328341E-019
   4.2666666666666642E-006     1.4031598764756694E-018
   4.4666666666666623E-006     1.6109902871509697E-018
   4.6666666666666604E-006     1.4540397616905265E-018
   4.8666666666666652E-006     8.0869137860215513E-019
   5.0666666666666633E-006    -3.6312259248522651E-019
   5.2666666666666614E-006    -1.9658291497877898E-018
   5.4666666666666663E-006    -3.7404660445754774E-018
   5.6666666666666644E-006    -5.2693540573395605E-018
   5.8666666666666624E-006    -6.0277394181546248E-018
   6.0666666666666605E-006    -5.4863549736355143E-018
   6.2666666666666654E-006    -3.2559552035061770E-018
   6.4666666666666635E-006     7.5050352078795414E-019
   6.6666666666666616E-006     6.1763257341417174E-018
   6.8666666666666664E-006     1.2147010118176158E-017
   7.0666666666666645E-006     1.7308879157422782E-017
   7.2666666666666626E-006     2.0010948513077632E-017
   7.4666666666666607E-006     1.8632378350225487E-017
   7.6666666666666655E-006     1.2019155513784681E-017
   7.8666666666666636E-006    -4.8280887476080831E-020
   8.0666666666666617E-006    -1.6469572152391742E-017
   8.2666666666666598E-006    -3.4650614859030667E-017
   8.4666666666666647E-006    -5.0657371876876126E-017
   8.6666666666666627E-006    -5.9765489198138242E-017
   8.8666666666666608E-006    -5.7392279443280241E-017
   9.0666666666666657E-006    -4.0294302440292054E-017
   9.2666666666666638E-006    -7.8089408741038440E-018
   9.4666666666666619E-006     3.7161209178990486E-017
   9.6666666666666599E-006     8.7748203421208863E-017
   9.8666666666666648E-006     1.3357966384393347E-016
   1.0066666666666663E-005     1.6224246041138157E-016
   1.0266666666666661E-005     1.6168119979167720E-016
   1.0466666666666666E-005     1.2321135036476498E-016
   1.0666666666666664E-005     4.4584559745749299E-017
   1.0866666666666662E-005    -6.7625477355177725E-017
   1.1066666666666660E-005    -1.9708228147403208E-016
   1.1266666666666665E-005    -3.1881228209660087E-016
   1.1466666666666663E-005    -4.0268343397424090E-016
   1.1666666666666661E-005    -4.1903276562438959E-016
   1.1866666666666666E-005    -3.4567241042143480E-016
   1.2066666666666664E-005    -1.7497970811319708E-016
   1.2266666666666662E-005     8.0566981365614662E-017
   1.2466666666666660E-005     3.8608392629323943E-016
   1.2666666666666665E-005     6.8653930870625257E-016
   1.2866666666666663E-005     9.1415906770205846E-016
   1.3066666666666661E-005     1.0005169754967876E-015
   1.3266666666666666E-005     8.9166191214358873E-016
   1.3466666666666664E-005     5.6355582469379269E-016
   1.3666666666666662E-005     3.4421318796713221E-017
   1.3866666666666660E-005    -6.2946918565977989E-016
   1.4066666666666665E-005    -1.3173078802124932E-015
   1.4266666666666663E-005    -1.8878296194624570E-015
   1.4466666666666661E-005    -2.1931283405292753E-015
   1.4666666666666666E-005    -2.1090610218378043E-015
   1.4866666666666664E-005    -1.5669873115614584E-015
   1.5066666666666662E-005    -5.8022810612817030E-016
   1.5266666666666661E-005     7.4153999440826145E-016
   1.5466666666666665E-005     2.1954832603703514E-015
   1.5666666666666663E-005     3.5092006594219564E-015
   1.5866666666666662E-005     4.3836896169321003E-015
   1.6066666666666660E-005     4.5503343468520884E-015
   1.6266666666666665E-005     3.8325930333972292E-015
   1.6466666666666663E-005     2.2003470533985091E-015
   1.6666666666666661E-005    -1.9581065668905553E-016
   1.6866666666666666E-005    -3.0211441453037695E-015
   1.7066666666666664E-005    -5.7905426254880587E-015
   1.7266666666666662E-005    -7.9392464048891032E-015
   1.7466666666666660E-005    -8.9226333968354204E-015
   1.7666666666666665E-005    -8.3298177353818842E-015
   1.7866666666666663E-005    -5.9904087520191712E-015
   1.8066666666666661E-005    -2.0516031904225209E-015
   1.8266666666666666E-005     2.9950960606325466E-015
   1.8466666666666664E-005     8.3515118682580085E-015
   1.8666666666666662E-005     1.3018240209338929E-014
   1.8866666666666660E-005     1.5958311399043071E-014
   1.9066666666666665E-005     1.6296299692502538E-014
   1.9266666666666663E-005     1.3519187387138907E-014
   1.9466666666666661E-005     7.6395278054492659E-015
   1.9666666666666666E-005    -7.1781643775349626E-016
   1.9866666666666664E-005    -1.0335211564493447E-014
   2.0066666666666662E-005    -1.9541954723943771E-014
   2.0266666666666660E-005    -2.6466726038018699E-014
   2.0466666666666665E-005    -2.9371871360955559E-014
   2.0666666666666663E-005    -2.7017508922627420E-014
   2.0866666666666661E-005    -1.8988904796711837E-014
   2.1066666666666659E-005    -5.9167077738607841E-015
   2.1266666666666664E-005     1.0471251810034988E-014
   2.1466666666666662E-005     2.7504984072481387E-014
   2.1666666666666660E-005     4.1938705776847029E-014
   2.1866666666666665E-005     5.0492360585047658E-014
   2.2066666666666663E-005     5.0491545783263969E-014
   2.2266666666666661E-005     4.0497004617642755E-014
   2.2466666666666659E-005     2.0797955630295559E-014
   2.2666666666666664E-005    -6.3507366253376547E-015
   2.2866666666666662E-005    -3.6838348302085724E-014
   2.3066666666666660E-005    -6.5192650142670418E-014
   2.3266666666666665E-005    -8.5427711551285394E-014
   2.3466666666666663E-005    -9.2138459739224141E-014
   2.3666666666666661E-005    -8.1668678657896104E-014
   2.3866666666666660E-005    -5.3134306243164308E-014
   2.4066666666666664E-005    -9.0747551455026835E-015
   2.4266666666666662E-005     4.4460793792168905E-014
   2.4466666666666661E-005     9.8506668602303337E-014
   2.4666666666666665E-005     1.4245308650644898E-013
   2.4866666666666663E-005     1.6586283481476588E-013
   2.5066666666666662E-005     1.6056526298088050E-013
   2.5266666666666660E-005     1.2266031227081915E-013
   2.5466666666666665E-005     5.4018946600022379E-014
   2.5666666666666663E-005    -3.7103658629962034E-014
   2.5866666666666661E-005    -1.3661560506008011E-013
   2.6066666666666666E-005    -2.2638510118155287E-013
   2.6266666666666664E-005    -2.8714177209925732E-013
   2.6466666666666662E-005    -3.0209231796337744E-013
   2.6666666666666660E-005    -2.6065241388963797E-013
   2.6866666666666665E-005    -1.6157219497359298E-013
   2.7066666666666663E-005    -1.4732469342337721E-014
   2.7266666666666661E-005     1.5896737887543579E-013
   2.7466666666666666E-005     3.2992406539366221E-013
   2.7666666666666664E-005     4.6425208631076708E-013
   2.7866666666666662E-005     5.2977918309719500E-013
   2.8066666666666667E-005     5.0268194383374572E-013
   2.8266666666666658E-005     3.7354529416781852E-013
   2.8466666666666663E-005     1.5154708641674656E-013
   2.8666666666666668E-005    -1.3437035897713990E-013
   2.8866666666666659E-005    -4.3805986720506222E-013
   2.9066666666666664E-005    -7.0255521141463165E-013
   2.9266666666666669E-005    -8.6962628491295434E-013
   2.9466666666666660E-005    -8.9111115216503104E-013
   2.9666666666666665E-005    -7.4005771640490618E-013
   2.9866666666666656E-005    -4.1942909630030920E-013
   3.0066666666666661E-005     3.3741012807738067E-014
   3.0266666666666666E-005     5.5029121513363499E-013
   3.0466666666666657E-005     1.0375481775026825E-012
   3.0666666666666662E-005     1.3939601932605520E-012
   3.0866666666666667E-005     1.5277979832707272E-012
   3.1066666666666658E-005     1.3768589071477745E-012
   3.1266666666666663E-005     9.2544019107543716E-013
   3.1466666666666668E-005     2.1480891017112693E-013
   3.1666666666666659E-005    -6.5590628998980795E-013
   3.1866666666666664E-005    -1.5400569556425076E-012
   3.2066666666666656E-005    -2.2647555767262662E-012
   3.2266666666666660E-005    -2.6606070662426649E-012
   3.2466666666666665E-005    -2.5953751719992976E-012
   3.2666666666666657E-005    -2.0056133638919522E-012
   3.2866666666666661E-005    -9.1980383462112750E-013
   3.3066666666666666E-005     5.3276775452818122E-013
   3.3266666666666658E-005     2.1312651025681802E-012
   3.3466666666666662E-005     3.5915895519132257E-012
   3.3666666666666667E-005     4.6110840777776165E-012
   3.3866666666666659E-005     4.9234899828478406E-012
   3.4066666666666664E-005     4.3551291229356360E-012
   3.4266666666666668E-005     2.8717883659700381E-012
   3.4466666666666660E-005     6.0603469697347870E-013
   3.4666666666666665E-005    -2.1429826916704162E-012
   3.4866666666666656E-005    -4.9410974956609900E-012
   3.5066666666666661E-005    -7.2804757024385862E-012
   3.5266666666666666E-005    -8.6633484080152603E-012
   3.5466666666666657E-005    -8.6954968353610725E-012
   3.5666666666666662E-005    -7.1733554119487704E-012
   3.5866666666666667E-005    -4.1476550304658424E-012
   3.6066666666666658E-005     5.1298994176445804E-014
   3.6266666666666663E-005     4.8364017133091955E-012
   3.6466666666666668E-005     9.4365530039528982E-012
   3.6666666666666659E-005     1.3012441789635553E-011
   3.6866666666666664E-005     1.4799433779449314E-011
   3.7066666666666669E-005     1.4254701246692205E-011
   3.7266666666666660E-005     1.1182243840881770E-011
   3.7466666666666665E-005     5.8102453862221533E-012
   3.7666666666666656E-005    -1.1989163683669502E-012
   3.7866666666666661E-005    -8.8158108924864167E-012
   3.8066666666666666E-005    -1.5784953664952224E-011
   3.8266666666666657E-005    -2.0822575571729425E-011
   3.8466666666666662E-005    -2.2841770962546932E-011
   3.8666666666666667E-005    -2.1167407040088380E-011
   3.8866666666666658E-005    -1.5700872757584205E-011
   3.9066666666666663E-005    -6.9995325522755036E-012
   3.9266666666666668E-005     3.7525955263107539E-012
   3.9466666666666659E-005     1.4889162748593188E-011
   3.9666666666666664E-005     2.4506986234212171E-011
   3.9866666666666655E-005     3.0779126228217879E-011
   4.0066666666666660E-005     3.2286313479331284E-011
   4.0266666666666665E-005     2.8309256760402759E-011
   4.0466666666666656E-005     1.9025533731221165E-011
   4.0666666666666661E-005     5.5663613149146800E-012
   4.0866666666666666E-005    -1.0090671071302643E-011
   4.1066666666666657E-005    -2.5389795461281314E-011
   4.1266666666666662E-005    -3.7593936340215399E-011
   4.1466666666666667E-005    -4.4251864779721066E-011
   4.1666666666666658E-005    -4.3659170100889080E-011
   4.1866666666666663E-005    -3.5230563272253121E-011
   4.2066666666666668E-005    -1.9708993918066956E-011
   4.2266666666666660E-005     8.4053323378176428E-013
   4.2466666666666664E-005     2.3271167604564027E-011
   4.2666666666666656E-005     4.3807360566519584E-011
   4.2866666666666661E-005     5.8650091004772864E-011
   4.3066666666666665E-005     6.4641057105498944E-011
   4.3266666666666657E-005     5.9874153615921045E-011
   4.3466666666666662E-005     4.4142044335404755E-011
   4.3666666666666666E-005     1.9125093141780076E-011
   4.3866666666666658E-005    -1.1732664708219863E-011
   4.4066666666666663E-005    -4.3665643436657040E-011
   4.4266666666666667E-005    -7.1296457408357593E-011
   4.4466666666666659E-005    -8.9512062104394146E-011
   4.4666666666666664E-005    -9.4367476640825735E-011
   4.4866666666666655E-005    -8.3862313495567362E-011
   4.5066666666666660E-005    -5.8444969337776670E-011
   4.5266666666666665E-005    -2.1135455762911753E-011
   4.5466666666666656E-005     2.2784829729852041E-011
   4.5666666666666661E-005     6.6496531274624361E-011
   4.5866666666666666E-005     1.0268630320236510E-010
   4.6066666666666657E-005     1.2475589002399944E-010
   4.6266666666666662E-005     1.2800088560670744E-010
   4.6466666666666667E-005     1.1055376177720408E-010
   4.6666666666666658E-005     7.3912072956795317E-011
   4.6866666666666663E-005     2.2929771602590894E-011
   4.7066666666666668E-005    -3.4766200417588080E-011
   4.7266666666666659E-005    -8.9876139676010336E-011
   4.7466666666666664E-005    -1.3289460197545261E-010
   4.7666666666666655E-005    -1.5571980288168645E-010
   4.7866666666666660E-005    -1.5314129491546357E-010
   4.8066666666666665E-005    -1.2394337064863617E-010
   4.8266666666666656E-005    -7.1408627820857222E-011
   4.8466666666666661E-005    -3.0928796103464630E-012
   4.8666666666666666E-005     7.0143385747213068E-011
   4.8866666666666657E-005     1.3573706856825742E-010
   4.9066666666666662E-005     1.8143379212137912E-010
   4.9266666666666667E-005     1.9740029115236998E-010
   4.9466666666666658E-005     1.7809106294115259E-010
   4.9666666666666663E-005     1.2354090324770862E-010
   4.9866666666666655E-005     3.9826514439149900E-011
   5.0066666666666659E-005    -6.1438017003256593E-011
   5.0266666666666664E-005    -1.6455794889345784E-010
   5.0466666666666656E-005    -2.5199566396782266E-010
   5.0666666666666660E-005    -3.0708051795017766E-010
   5.0866666666666665E-005    -3.1678557446297339E-010
   5.1066666666666657E-005    -2.7413050706017566E-010
   5.1266666666666661E-005    -1.7980337892587777E-010
   5.1466666666666666E-005    -4.2694261112361262E-011
   5.1666666666666658E-005     1.2081065673812393E-010
   5.1866666666666662E-005     2.8873993267435922E-010
   5.2066666666666667E-005     4.3642778637277454E-010
   5.2266666666666659E-005     5.3999658424051087E-010
   5.2466666666666664E-005     5.7993288027887721E-010
   5.2666666666666655E-005     5.4422313454842744E-010
   5.2866666666666660E-005     4.3055980017122251E-010
   5.3066666666666665E-005     2.4725132498985598E-010
   5.3266666666666656E-005     1.2651320135956852E-011
   5.3466666666666661E-005    -2.4686029677095320E-010
   5.3666666666666666E-005    -5.0009655165306937E-010
   5.3866666666666657E-005    -7.1505095623843552E-010
   5.4066666666666662E-005    -8.6310036702589790E-010
   5.4266666666666667E-005    -9.2283167472229667E-010
   5.4466666666666658E-005    -8.8294954746533869E-010
   5.4666666666666663E-005    -7.4385518681074810E-010
   5.4866666666666668E-005    -5.1768015475043091E-010
   5.5066666666666659E-005    -2.2678385151933022E-010
   5.5266666666666664E-005     9.9052819796616782E-011
   5.5466666666666655E-005     4.2632217218694000E-010
   5.5666666666666660E-005     7.2183836684145202E-010
   5.5866666666666665E-005     9.5657172814838969E-010
   5.6066666666666656E-005     1.1087556952899346E-009
   5.6266666666666661E-005     1.1658833307178917E-009
   5.6466666666666666E-005     1.1253962891075576E-009
   5.6666666666666657E-005     9.9407911612184430E-010
   5.6866666666666662E-005     7.8636578918638960E-010
   5.7066666666666667E-005     5.2191721028808764E-010
   5.7266666666666658E-005     2.2291286205135780E-010
   5.7466666666666663E-005    -8.8498788263176161E-011
   5.7666666666666654E-005    -3.9221979450435238E-010
   5.7866666666666659E-005    -6.7145648719528309E-010
   5.8066666666666664E-005    -9.1314052635820790E-010
   5.8266666666666655E-005    -1.1076210888343305E-009
   5.8466666666666660E-005    -1.2478715058603379E-009
   5.8666666666666665E-005    -1.3285355842066634E-009
   5.8866666666666656E-005    -1.3451491359795907E-009
   5.9066666666666661E-005    -1.2938090677103582E-009
   5.9266666666666666E-005    -1.1714389273691140E-009
   5.9466666666666657E-005    -9.7664321749106724E-010
   5.9666666666666662E-005    -7.1097971846870097E-010
   5.9866666666666667E-005    -3.8035522858921003E-010
   6.0066666666666659E-005     3.8250346490861134E-012
   6.0266666666666663E-005     4.2411168092701411E-010
   6.0466666666666655E-005     8.5734132715917194E-010
   6.0666666666666660E-005     1.2759638477362265E-009
   6.0866666666666664E-005     1.6502923196500113E-009
   6.1066666666666656E-005     1.9514114567972190E-009
   6.1266666666666661E-005     2.1543187356749718E-009
   6.1466666666666665E-005     2.2407901340999274E-009
   6.1666666666666657E-005     2.2014617358914744E-009
   6.1866666666666662E-005     2.0367342220734420E-009
   6.2066666666666666E-005     1.7562831034808904E-009
   6.2266666666666658E-005     1.3772168768521992E-009
   6.2466666666666663E-005     9.2117930617535171E-010
   6.2666666666666668E-005     4.1091086265548322E-010
   6.2866666666666659E-005    -1.3306685954480334E-010
   6.3066666666666664E-005    -6.9495923734956388E-010
   6.3266666666666655E-005    -1.2648105801050900E-009
   6.3466666666666660E-005    -1.8378599942877013E-009
   6.3666666666666665E-005    -2.4120882279212106E-009
   6.3866666666666656E-005    -2.9842605755856012E-009
   6.4066666666666661E-005    -3.5451069380472656E-009
   6.4266666666666666E-005    -4.0745354860175078E-009
   6.4466666666666657E-005    -4.5379060558018966E-009
   6.4666666666666662E-005    -4.8843498465604721E-009
   6.4866666666666667E-005    -5.0479228503662906E-009
   6.5066666666666658E-005    -4.9520197922027366E-009
   6.5266666666666663E-005    -4.5170234509769781E-009
   6.5466666666666654E-005    -3.6706545111285622E-009
   6.5666666666666659E-005    -2.3600339266139458E-009
   6.5866666666666664E-005    -5.6409214628518359E-010
   6.6066666666666655E-005     1.6952403901647232E-009
   6.6266666666666660E-005     4.3446498375687669E-009
   6.6466666666666665E-005     7.2552648519700972E-009
   6.6666666666666656E-005     1.0243743753002107E-008
   6.6866666666666661E-005     1.3079177810419749E-008
   6.7066666666666666E-005     1.5495828616162242E-008
   6.7266666666666657E-005     1.7211119873013462E-008
   6.7466666666666662E-005     1.7947817234268651E-008
   6.7666666666666667E-005     1.7458924534948015E-008
   6.7866666666666658E-005     1.5553490835103217E-008
   6.8066666666666663E-005     1.2121423560329117E-008
   6.8266666666666655E-005     7.1553325868729716E-009
   6.8466666666666659E-005     7.6750349312758522E-010
   6.8666666666666664E-005    -6.7997346741587837E-009
   6.8866666666666656E-005    -1.5171793935892701E-008
   6.9066666666666660E-005    -2.3849004616323502E-008
   6.9266666666666665E-005    -3.2224079711049437E-008
   6.9466666666666657E-005    -3.9610302143742238E-008
   6.9666666666666661E-005    -4.5280286484303533E-008
   6.9866666666666666E-005    -4.8514414873140236E-008
   7.0066666666666658E-005    -4.8657215566425480E-008
   7.0266666666666662E-005    -4.5178890471092251E-008
   7.0466666666666654E-005    -3.7738232779624799E-008
   7.0666666666666659E-005    -2.6242167409244797E-008
   7.0866666666666664E-005    -1.0896323385820580E-008
   7.1066666666666655E-005     7.7592918152248388E-009
   7.1266666666666660E-005     2.8835462039322738E-008
   7.1466666666666665E-005     5.1105034972307755E-008
   7.1666666666666656E-005     7.3044198937806245E-008
   7.1866666666666661E-005     9.2905652105199235E-008
   7.2066666666666666E-005     1.0882295449830658E-007
   7.2266666666666657E-005     1.1894241211589559E-007
   7.2466666666666662E-005     1.2157553277640128E-007
   7.2666666666666667E-005     1.1536228381739309E-007
   7.2866666666666658E-005     9.9432713731887532E-008
   7.3066666666666663E-005     7.3552704419894291E-008
   7.3266666666666654E-005     3.8239099904541870E-008
   7.3466666666666659E-005    -5.1701214338415437E-009
   7.3666666666666664E-005    -5.4502975043205864E-008
   7.3866666666666655E-005    -1.0680702393977621E-007
   7.4066666666666660E-005    -1.5847394633919973E-007
   7.4266666666666665E-005    -2.0543457106993087E-007
   7.4466666666666656E-005    -2.4341758687698310E-007
   7.4666666666666661E-005    -2.6825939815979375E-007
   7.4866666666666666E-005    -2.7624670189305579E-007
   7.5066666666666657E-005    -2.6446853155493914E-007
   7.5266666666666662E-005    -2.3115087676801145E-007
   7.5466666666666653E-005    -1.7594535926415086E-007