  -3.3333333333333335E-005     0.0000000000000000     
  -3.3133333333333337E-005     3.0514582428010917E-004
  -3.2933333333333332E-005     7.5987300466434616E-004
  -3.2733333333333334E-005     1.0889528737517541E-003
  -3.2533333333333336E-005     1.0102883309795964E-003
  -3.2333333333333338E-005     3.6141901799871160E-004
  -3.2133333333333333E-005    -8.0554868824942653E-004
  -3.1933333333333335E-005    -2.1961529930969222E-003
  -3.1733333333333337E-005    -3.3264532691123739E-003
  -3.1533333333333332E-005    -3.6431010978514883E-003
  -3.1333333333333334E-005    -2.6742148753753038E-003
  -3.1133333333333336E-005    -1.6358428869067730E-004
  -3.0933333333333338E-005     3.8547867703610638E-003
  -3.0733333333333333E-005     9.0661182245805466E-003
  -3.0533333333333335E-005     1.4965821657608557E-002
  -3.0333333333333337E-005     2.1003595778954103E-002
  -3.0133333333333335E-005     2.6735582173879644E-002
  -2.9933333333333334E-005     3.1937545740979331E-002
  -2.9733333333333336E-005     3.6645401832477463E-002
  -2.9533333333333334E-005     4.1113471730484741E-002
  -2.9333333333333336E-005     4.5707581709119649E-002
  -2.9133333333333334E-005     5.0770770182510590E-002
  -2.8933333333333336E-005     5.6507117520073272E-002
  -2.8733333333333335E-005     6.2921719001421322E-002
  -2.8533333333333333E-005     6.9834935789359759E-002
  -2.8333333333333335E-005     7.6963416057366438E-002
  -2.8133333333333337E-005     8.4037915298911955E-002
  -2.7933333333333336E-005     9.0915752461381755E-002
  -2.7733333333333334E-005     9.7648283884823134E-002
  -2.7533333333333336E-005    0.10447948055149302     
  -2.7333333333333335E-005    0.11177538585636165     
  -2.7133333333333333E-005    0.11990792153624291     
  -2.6933333333333335E-005    0.12913195210353634     
  -2.6733333333333337E-005    0.13949665999715447     
  -2.6533333333333336E-005    0.15082087362835944     
  -2.6333333333333334E-005    0.16274050125079398     
  -2.6133333333333336E-005    0.17481213369602208     
  -2.5933333333333335E-005    0.18663853909059680     
  -2.5733333333333333E-005    0.19797476123306806     
  -2.5533333333333335E-005    0.20878063308947528     
  -2.5333333333333337E-005    0.21920331389194331     
  -2.5133333333333336E-005    0.22949722742857637     
  -2.4933333333333334E-005    0.23990869453539487     
  -2.4733333333333336E-005    0.25056412293274832     
  -2.4533333333333334E-005    0.26139817077418748     
  -2.4333333333333333E-005    0.27214450791433265     
  -2.4133333333333335E-005    0.28239031357472139     
  -2.3933333333333337E-005    0.29167465016714700     
  -2.3733333333333335E-005    0.29959660641245811     
  -2.3533333333333334E-005    0.30589689107063200     
  -2.3333333333333336E-005    0.31048652213994654     
  -2.3133333333333338E-005    0.31341434309631711     
  -2.2933333333333336E-005    0.31478646853700853     
  -2.2733333333333335E-005    0.31466595996456787     
  -2.2533333333333337E-005    0.31298762600671293     
  -2.2333333333333335E-005    0.30951688827706564     
  -2.2133333333333334E-005    0.30386560436424337     
  -2.1933333333333336E-005    0.29555906961997708     
  -2.1733333333333338E-005    0.28413056467180614     
  -2.1533333333333336E-005    0.26921155823456733     
  -2.1333333333333335E-005    0.25058746759334699     
  -2.1133333333333337E-005    0.22820130036538550     
  -2.0933333333333335E-005    0.20210533047706636     
  -2.0733333333333334E-005    0.17237828834220006     
  -2.0533333333333336E-005    0.13903681213771787     
  -2.0333333333333337E-005    0.10197076978139551     
  -2.0133333333333336E-005     6.0923516194261812E-002
  -1.9933333333333334E-005     1.5522378811870491E-002
  -1.9733333333333336E-005    -3.4652449204377239E-002
  -1.9533333333333335E-005    -8.9984395287440344E-002
  -1.9333333333333333E-005   -0.15075070056259240     
  -1.9133333333333335E-005   -0.21708830234946164     
  -1.8933333333333337E-005   -0.28900495862778919     
  -1.8733333333333336E-005   -0.36642854751094533     
  -1.8533333333333334E-005   -0.44927533169653266     
  -1.8333333333333336E-005   -0.53751146341453981     
  -1.8133333333333335E-005   -0.63118519315747446     
  -1.7933333333333337E-005   -0.73041868287820577     
  -1.7733333333333335E-005   -0.83536206209859221     
  -1.7533333333333337E-005   -0.94612524524080588     
  -1.7333333333333336E-005    -1.0627119322056722     
  -1.7133333333333334E-005    -1.1849767663442456     
  -1.6933333333333336E-005    -1.3126199648964700     
  -1.6733333333333335E-005    -1.4452204326954932     
  -1.6533333333333337E-005    -1.5822927700364684     
  -1.6333333333333335E-005    -1.7233504573820371     
  -1.6133333333333337E-005    -1.8679498452133521     
  -1.5933333333333336E-005    -2.0157034288361610     
  -1.5733333333333334E-005    -2.1662560212818587     
  -1.5533333333333336E-005    -2.3192353778807293     
  -1.5333333333333334E-005    -2.4741932948493552     
  -1.5133333333333336E-005    -2.6305608136428411     
  -1.4933333333333335E-005    -2.7876289043654858     
  -1.4733333333333337E-005    -2.9445649312880979     
  -1.4533333333333335E-005    -3.1004555059468091     
  -1.4333333333333337E-005    -3.2543607306552724     
  -1.4133333333333336E-005    -3.4053603969178541     
  -1.3933333333333334E-005    -3.5525779434430937     
  -1.3733333333333336E-005    -3.6951748440725081     
  -1.3533333333333335E-005    -3.8323186147781714     
  -1.3333333333333337E-005    -3.9631397282191796     
  -1.3133333333333335E-005    -4.0866985962831288     
  -1.2933333333333337E-005    -4.2019723385544943     
  -1.2733333333333336E-005    -4.3078734853537233     
  -1.2533333333333338E-005    -4.4032967646531782     
  -1.2333333333333336E-005    -4.4871785400898583     
  -1.2133333333333335E-005    -4.5585536903932642     
  -1.1933333333333337E-005    -4.6165890509051719     
  -1.1733333333333335E-005    -4.6605879791063289     
  -1.1533333333333337E-005    -4.6899647768715713     
  -1.1333333333333336E-005    -4.7042008453045741     
  -1.1133333333333337E-005    -4.7028009854175448     
  -1.0933333333333336E-005    -4.6852675362548322     
  -1.0733333333333334E-005    -4.6511021020465488     
  -1.0533333333333336E-005    -4.5998393531476101     
  -1.0333333333333335E-005    -4.5310977816053626     
  -1.0133333333333337E-005    -4.4446347810520752     
  -9.9333333333333354E-006    -4.3403864229939977     
  -9.7333333333333373E-006    -4.2184767799330842     
  -9.5333333333333358E-006    -4.0791971519734851     
  -9.3333333333333343E-006    -3.9229622855166966     
  -9.1333333333333362E-006    -3.7502590771431379     
  -8.9333333333333348E-006    -3.5616080820503915     
  -8.7333333333333367E-006    -3.3575524281082982     
  -8.5333333333333352E-006    -3.1386761487144303     
  -8.3333333333333371E-006    -2.9056499824856901     
  -8.1333333333333356E-006    -2.6592842843451496     
  -7.9333333333333376E-006    -2.4005720255312233     
  -7.7333333333333361E-006    -2.1307023027660343     
  -7.5333333333333346E-006    -1.8510397730566224     
  -7.3333333333333365E-006    -1.5630717502748210     
  -7.1333333333333351E-006    -1.2683391523657939     
  -6.9333333333333370E-006   -0.96837179382679661     
  -6.7333333333333355E-006   -0.66464797462461633     
  -6.5333333333333374E-006   -0.35858923336462245     
  -6.3333333333333359E-006    -5.1589807707315971E-002
  -6.1333333333333379E-006    0.25493243565323104     
  -5.9333333333333364E-006    0.55948377979846931     
  -5.7333333333333349E-006    0.86046283417321368     
  -5.5333333333333368E-006     1.1561639632767009     
  -5.3333333333333354E-006     1.4448189558061133     
  -5.1333333333333373E-006     1.7246664889790726     
  -4.9333333333333358E-006     1.9940306611645378     
  -4.7333333333333377E-006     2.2513844775858995     
  -4.5333333333333362E-006     2.4953819764891163     
  -4.3333333333333348E-006     2.7248497117495880     
  -4.1333333333333367E-006     2.9387451028098917     
  -3.9333333333333352E-006     3.1360998001925555     
  -3.7333333333333371E-006     3.3159683998177782     
  -3.5333333333333356E-006     3.4774078406937305     
  -3.3333333333333376E-006     3.6194947158275701     
  -3.1333333333333361E-006     3.7413790553088457     
  -2.9333333333333346E-006     3.8423606628044116     
  -2.7333333333333365E-006     3.9219633290309828     
  -2.5333333333333384E-006     3.9799837059273679     
  -2.3333333333333336E-006     4.0164980611265921     
  -2.1333333333333355E-006     4.0318281370498310     
  -1.9333333333333374E-006     4.0264718064928253     
  -1.7333333333333393E-006     4.0010255216551167     
  -1.5333333333333345E-006     3.9561204116215682     
  -1.3333333333333364E-006     3.8923938734613812     
  -1.1333333333333383E-006     3.8105022833169682     
  -9.3333333333333343E-007     3.7111705051331785     
  -7.3333333333333535E-007     3.5952584077927749     
  -5.3333333333333726E-007     3.4638176700782832     
  -3.3333333333333918E-007     3.3181186081651273     
  -1.3333333333333432E-007     3.1596342563855679     
   6.6666666666663770E-008     2.9899801667339942     
   2.6666666666666185E-007     2.8108300047277655     
   4.6666666666666672E-007     2.6238270930865801     
   6.6666666666666480E-007     2.4305203916289027     
   8.6666666666666289E-007     2.2323384795082046     
   1.0666666666666610E-006     2.0306087566152233     
   1.2666666666666658E-006     1.8266091231062436     
   1.4666666666666639E-006     1.6216323856310730     
   1.6666666666666620E-006     1.4170358982101234     
   1.8666666666666669E-006     1.2142579915197302     
   2.0666666666666649E-006     1.0147896607330715     
   2.2666666666666630E-006    0.82010900005329046     
   2.4666666666666611E-006    0.63159626005991298     
   2.6666666666666660E-006    0.45045442775730027     
   2.8666666666666641E-006    0.27765953414076910     
   3.0666666666666622E-006    0.11395467439196871     
   3.2666666666666602E-006    -4.0112483832015711E-002
   3.4666666666666651E-006   -0.18412182349303396     
   3.6666666666666632E-006   -0.31770628671260592     
   3.8666666666666613E-006   -0.44049607689129266     
   4.0666666666666661E-006   -0.55209929764308530     
   4.2666666666666642E-006   -0.65212551613212333     
   4.4666666666666623E-006   -0.74024335152674459     
   4.6666666666666604E-006   -0.81625197000919547     
   4.8666666666666652E-006   -0.88014205434002857     
   5.0666666666666633E-006   -0.93212438483592952     
   5.2666666666666614E-006   -0.97261564875998863     
   5.4666666666666663E-006    -1.0021840876164327     
   5.6666666666666644E-006    -1.0214715385660196     
   5.8666666666666624E-006    -1.0311150480403506     
   6.0666666666666605E-006    -1.0316914430050774     
   6.2666666666666654E-006    -1.0237004988822678     
   6.4666666666666635E-006    -1.0075889535009317     
   6.6666666666666616E-006   -0.98380438947990845     
   6.8666666666666664E-006   -0.95285921988199429     
   7.0666666666666645E-006   -0.91537991227161486     
   7.2666666666666626E-006   -0.87212480979558094     
   7.4666666666666607E-006   -0.82396137635856648     
   7.6666666666666655E-006   -0.77180951913559115     
   7.8666666666666636E-006   -0.71656776428294655     
   8.0666666666666617E-006   -0.65904470295683615     
   8.2666666666666598E-006   -0.59991640779999755     
   8.4666666666666647E-006   -0.53972110515539651     
   8.6666666666666627E-006   -0.47889117796503022     
   8.8666666666666608E-006   -0.41780979512563615     
   9.0666666666666657E-006   -0.35687177505367129     
   9.2666666666666638E-006   -0.29652759682185126     
   9.4666666666666619E-006   -0.23729562164664508     
   9.6666666666666599E-006   -0.17973806510022511     
   9.8666666666666648E-006   -0.12440884896903665     
   1.0066666666666663E-005    -7.1790162326341819E-002
   1.0266666666666661E-005    -2.2238697434990101E-002
   1.0466666666666666E-005     2.4041214165071961E-002
   1.0666666666666664E-005     6.6989252869901234E-002
   1.0866666666666662E-005    0.10664845736567637     
   1.1066666666666660E-005    0.14310564721058580     
   1.1266666666666665E-005    0.17643209722646924     
   1.1466666666666663E-005    0.20664263072018865     
   1.1666666666666661E-005    0.23368516581260521     
   1.1866666666666666E-005    0.25746213061458184     
   1.2066666666666664E-005    0.27790253158549927     
   1.2266666666666662E-005    0.29496493751019609     
   1.2466666666666660E-005    0.30867097806254407     
   1.2666666666666665E-005    0.31912671991239316     
   1.2866666666666663E-005    0.32652491912157977     
   1.3066666666666661E-005    0.33112757539790127     
   1.3266666666666666E-005    0.33323348156656618     
   1.3466666666666664E-005    0.33314030102487158     
   1.3666666666666662E-005    0.33111123305598272     
   1.3866666666666660E-005    0.32735469616313612     
   1.4066666666666665E-005    0.32202063132185188     
   1.4266666666666663E-005    0.31521234475094845     
   1.4466666666666661E-005    0.30700779122432414     
   1.4666666666666666E-005    0.29748228214656791     
   1.4866666666666664E-005    0.28672483668490156     
   1.5066666666666662E-005    0.27484337284088722     
   1.5266666666666661E-005    0.26195805923599108     
   1.5466666666666665E-005    0.24818652507732616     
   1.5666666666666663E-005    0.23362662476844512     
   1.5866666666666662E-005    0.21834395683647539     
   1.6066666666666660E-005    0.20236865274181270     
   1.6266666666666665E-005    0.18570324251808995     
   1.6466666666666663E-005    0.16833956143638004     
   1.6666666666666661E-005    0.15027956567104611     
   1.6866666666666666E-005    0.13155421817817531     
   1.7066666666666664E-005    0.11223479202649972     
   1.7266666666666662E-005     9.2433833764772988E-002
   1.7466666666666660E-005     7.2295985530419604E-002
   1.7666666666666665E-005     5.1981765841966829E-002
   1.7866666666666663E-005     3.1649292827179668E-002
   1.8066666666666661E-005     1.1438987718883797E-002
   1.8266666666666666E-005    -8.5350227092837842E-003
   1.8466666666666664E-005    -2.8185373657083710E-002
   1.8666666666666662E-005    -4.7444880424489327E-002
   1.8866666666666660E-005    -6.6255920092652965E-002
   1.9066666666666665E-005    -8.4559412743559548E-002
   1.9266666666666663E-005   -0.10228670236712106     
   1.9466666666666661E-005   -0.11935615747172422     
   1.9666666666666666E-005   -0.13567463095738733     
   1.9866666666666664E-005   -0.15114236077568571     
   2.0066666666666662E-005   -0.16565917402998598     
   2.0266666666666660E-005   -0.17912987929146043     
   2.0466666666666665E-005   -0.19146737891072499     
   2.0666666666666663E-005   -0.20259317538151711     
   2.0866666666666661E-005   -0.21243589525503945     
   2.1066666666666659E-005   -0.22092904465930169     
   2.1266666666666664E-005   -0.22800910583348105     
   2.1466666666666662E-005   -0.23361469417740860     
   2.1666666666666660E-005   -0.23768703288170309     
   2.1866666666666665E-005   -0.24017152774780554     
   2.2066666666666663E-005   -0.24101979050385627     
   2.2266666666666661E-005   -0.24019178545422395     
   2.2466666666666659E-005   -0.23765820883097505     
   2.2666666666666664E-005   -0.23340300882939077     
   2.2866666666666662E-005   -0.22742637283394129     
   2.3066666666666660E-005   -0.21974807815616995     
   2.3266666666666665E-005   -0.21041049435848802     
   2.3466666666666663E-005   -0.19948036803918817     
   2.3666666666666661E-005   -0.18704817944711188     
   2.3866666666666660E-005   -0.17322440367034653     
   2.4066666666666664E-005   -0.15813264803545915     
   2.4266666666666662E-005   -0.14190112370800254     
   2.4466666666666661E-005   -0.12465425289002953     
   2.4666666666666665E-005   -0.10650701329879533     
   2.4866666666666663E-005    -8.7563967230702144E-002
   2.5066666666666662E-005    -6.7923670537373429E-002
   2.5266666666666660E-005    -4.7687586166783411E-002
   2.5466666666666665E-005    -2.6970842050764793E-002
   2.5666666666666663E-005    -5.9114152625554424E-003
   2.5866666666666661E-005     1.5325657866224574E-002
   2.6066666666666666E-005     3.6551070004650715E-002
   2.6266666666666664E-005     5.7560955070463930E-002
   2.6466666666666662E-005     7.8151142930190376E-002
   2.6666666666666660E-005     9.8131931751103463E-002
   2.6866666666666665E-005    0.11733882699227235     
   2.7066666666666663E-005    0.13563581798109547     
   2.7266666666666661E-005    0.15291011931207357     
   2.7466666666666666E-005    0.16906003466482589     
   2.7666666666666664E-005    0.18398026747925073     
   2.7866666666666662E-005    0.19755007693780380     
   2.8066666666666667E-005    0.20962916628529549     
   2.8266666666666658E-005    0.22006391126218577     
   2.8466666666666663E-005    0.22870308642136092     
   2.8666666666666668E-005    0.23541900688197986     
   2.8866666666666659E-005    0.24012772333149987     
   2.9066666666666664E-005    0.24280171118401267     
   2.9266666666666669E-005    0.24347031927402787     
   2.9466666666666660E-005    0.24220699582960450     
   2.9666666666666665E-005    0.23910650250319729     
   2.9866666666666656E-005    0.23425855136514795     
   3.0066666666666661E-005    0.22772610960935008     
   3.0266666666666666E-005    0.21953512743413856     
   3.0466666666666657E-005    0.20967949822598989     
   3.0666666666666662E-005    0.19813996139493170     
   3.0866666666666667E-005    0.18491148515494524     
   3.1066666666666658E-005    0.17003056170291939     
   3.1266666666666663E-005    0.15359376365783084     
   3.1466666666666668E-005    0.13576126216910026     
   3.1666666666666659E-005    0.11674408179664522     
   3.1866666666666664E-005     9.6778524337769650E-002
   3.2066666666666656E-005     7.6095918011751348E-002
   3.2266666666666660E-005     5.4897063651820337E-002
   3.2466666666666665E-005     3.3339481285051688E-002
   3.2666666666666657E-005     1.1541385401357563E-002
   3.2866666666666661E-005    -1.0399275370510710E-002
   3.3066666666666666E-005    -3.2377519163231679E-002
   3.3266666666666658E-005    -5.4255536092460969E-002
   3.3466666666666662E-005    -7.5847996875854556E-002
   3.3666666666666667E-005    -9.6924594883073867E-002
   3.3866666666666659E-005   -0.11723037611442898     
   3.4066666666666664E-005   -0.13651833509731648     
   3.4266666666666668E-005   -0.15458443614289386     
   3.4466666666666660E-005   -0.17129391641362976     
   3.4666666666666665E-005   -0.18659003021115525     
   3.4866666666666656E-005   -0.20048186373030982     
   3.5066666666666661E-005   -0.21301438839880205     
   3.5266666666666666E-005   -0.22422976704595798     
   3.5466666666666657E-005   -0.23413205201101700     
   3.5666666666666662E-005   -0.24266652617004539     
   3.5866666666666667E-005   -0.24972059210078135     
   3.6066666666666658E-005   -0.25514618040751230     
   3.6266666666666663E-005   -0.25879707506053168     
   3.6466666666666668E-005   -0.26056921829035862     
   3.6666666666666659E-005   -0.26043137374043412     
   3.6866666666666664E-005   -0.25843625544143645     
   3.7066666666666669E-005   -0.25470857755040732     
   3.7266666666666660E-005   -0.24941353354925905     
   3.7466666666666665E-005   -0.24271613780958987     
   3.7666666666666656E-005   -0.23474434488274210     
   3.7866666666666661E-005   -0.22556764011393685     
   3.8066666666666666E-005   -0.21519841494073599     
   3.8266666666666657E-005   -0.20361507389932876     
   3.8466666666666662E-005   -0.19079951504056739     
   3.8666666666666667E-005   -0.17677625692891191     
   3.8866666666666658E-005   -0.16164007829544352     
   3.9066666666666663E-005   -0.14556272928582603     
   3.9266666666666668E-005   -0.12877589380678822     
   3.9466666666666659E-005   -0.11153550634980378     
   3.9666666666666664E-005    -9.4078634955715515E-002
   3.9866666666666655E-005    -7.6586624016785385E-002
   4.0066666666666660E-005    -5.9166385593873147E-002
   4.0266666666666665E-005    -4.1855785765380744E-002
   4.0466666666666656E-005    -2.4651297182562343E-002
   4.0666666666666661E-005    -7.5487631875316742E-003
   4.0866666666666666E-005     9.4161892575083412E-003
   4.1066666666666657E-005     2.6141515988144529E-002
   4.1266666666666662E-005     4.2454943742003863E-002
   4.1466666666666667E-005     5.8134590172228655E-002
   4.1666666666666658E-005     7.2947683374821132E-002
   4.1866666666666663E-005     8.6695151116905775E-002
   4.2066666666666668E-005     9.9247875173925762E-002
   4.2266666666666660E-005    0.11056306218962808     
   4.2466666666666664E-005    0.12067565268903960     
   4.2666666666666656E-005    0.12966761552074477     
   4.2866666666666661E-005    0.13762533255689466     
   4.3066666666666665E-005    0.14459876969848112     
   4.3266666666666657E-005    0.15057588789664167     
   4.3466666666666662E-005    0.15548016402243089     
   4.3666666666666666E-005    0.15919206531433294     
   4.3866666666666658E-005    0.16158721801267470     
   4.4066666666666663E-005    0.16257863004817028     
   4.4266666666666667E-005    0.16214924041033582     
   4.4466666666666659E-005    0.16036402373477607     
   4.4666666666666664E-005    0.15735792063675458     
   4.4866666666666655E-005    0.15330337908591507     
   4.5066666666666660E-005    0.14836815684087290     
   4.5266666666666665E-005    0.14267688470596654     
   4.5466666666666656E-005    0.13628859336699356     
   4.5666666666666661E-005    0.12919714287377265     
   4.5866666666666666E-005    0.12135387604999308     
   4.6066666666666657E-005    0.11270479868940868     
   4.6266666666666662E-005    0.10322966199924999     
   4.6466666666666667E-005     9.2970263459754274E-002
   4.6666666666666658E-005     8.2038652196860865E-002
   4.6866666666666663E-005     7.0602717229770018E-002
   4.7066666666666668E-005     5.8854008997407385E-002
   4.7266666666666659E-005     4.6968249697440054E-002
   4.7466666666666664E-005     3.5071333006737038E-002
   4.7666666666666655E-005     2.3221488055663677E-002
   4.7866666666666660E-005     1.1412986220404965E-002
   4.8066666666666665E-005    -4.0030641395349259E-004
   4.8266666666666656E-005    -1.2269578722426303E-002
   4.8466666666666661E-005    -2.4215606827930381E-002
   4.8666666666666666E-005    -3.6204551074606586E-002
   4.8866666666666657E-005    -4.8142561053655969E-002
   4.9066666666666662E-005    -5.9890380502786472E-002
   4.9266666666666667E-005    -7.1292674085649571E-002
   4.9466666666666658E-005    -8.2212212616690136E-002
   4.9666666666666663E-005    -9.2557619480025818E-002
   4.9866666666666655E-005   -0.10229596252101154     
   5.0066666666666659E-005   -0.11144643104323818     
   5.0266666666666664E-005   -0.12005771625169438     
   5.0466666666666656E-005   -0.12817687567863048     
   5.0666666666666660E-005   -0.13582008591646966     
   5.0866666666666665E-005   -0.14295468876982209     
   5.1066666666666657E-005   -0.14949814409529016     
   5.1266666666666661E-005   -0.15533379231038175     
   5.1466666666666666E-005   -0.16033813651901718     
   5.1666666666666658E-005   -0.16441049102994978     
   5.1866666666666662E-005   -0.16749574291113448     
   5.2066666666666667E-005   -0.16959319041265103     
   5.2266666666666659E-005   -0.17074931362073231     
   5.2466666666666664E-005   -0.17103730022585104     
   5.2666666666666655E-005   -0.17053050805674835     
   5.2866666666666660E-005   -0.16927834293531041     
   5.3066666666666665E-005   -0.16729209823934418     
   5.3266666666666656E-005   -0.16454469773492555     
   5.3466666666666661E-005   -0.16098366806290645     
   5.3666666666666666E-005   -0.15655263590723142     
   5.3866666666666657E-005   -0.15121408859069063     
   5.4066666666666662E-005   -0.14496616079215568     
   5.4266666666666667E-005   -0.13784872589499991     
   5.4466666666666658E-005   -0.12993746031233755     
   5.4666666666666663E-005   -0.12132863805124861     
   5.4866666666666668E-005   -0.11212008381817246     
   5.5066666666666659E-005   -0.10239460036143544     
   5.5266666666666664E-005    -9.2210831482089084E-002
   5.5466666666666655E-005    -8.1603960551317398E-002
   5.5666666666666660E-005    -7.0595166806791135E-002
   5.5866666666666665E-005    -5.9206058382173132E-002
   5.6066666666666656E-005    -4.7473063444449695E-002
   5.6266666666666661E-005    -3.5456980709106529E-002
   5.6466666666666666E-005    -2.3244825890412102E-002
   5.6666666666666657E-005    -1.0943781334476918E-002
   5.6866666666666662E-005     1.3305214877505911E-003
   5.7066666666666667E-005     1.3467519528465643E-002
   5.7266666666666658E-005     2.5372987890386358E-002
   5.7466666666666663E-005     3.6974835598157389E-002
   5.7666666666666654E-005     4.8222395876279550E-002
   5.7866666666666659E-005     5.9079912772288204E-002
   5.8066666666666664E-005     6.9516782261587445E-002
   5.8266666666666655E-005     7.9497562378862074E-002
   5.8466666666666660E-005     8.8974582729840587E-002
   5.8666666666666665E-005     9.7884837825910204E-002
   5.8866666666666656E-005    0.10615155376777408     
   5.9066666666666661E-005    0.11368932473335280     
   5.9266666666666666E-005    0.12041122468283433     
   5.9466666666666657E-005    0.12623599410065359     
   5.9666666666666662E-005    0.13109363192851464     
   5.9866666666666667E-005    0.13492881100636456     
   6.0066666666666659E-005    0.13770164831616977     
   6.0266666666666663E-005    0.13938642941712906     
   6.0466666666666655E-005    0.13996880525845434     
   6.0666666666666660E-005    0.13944231673627022     
   6.0866666666666664E-005    0.13780484335849380     
   6.1066666666666656E-005    0.13505572673260530     
   6.1266666666666661E-005    0.13119413900778493     
   6.1466666666666665E-005    0.12621912128241500     
   6.1666666666666657E-005    0.12013160177907689     
   6.1866666666666662E-005    0.11293812360650975     
   6.2066666666666666E-005    0.10465560795323936     
   6.2266666666666658E-005     9.5316062420211761E-002
   6.2466666666666663E-005     8.4969726437209778E-002
   6.2666666666666668E-005     7.3685560754902513E-002
   6.2866666666666659E-005     6.1548516252535504E-002
   6.3066666666666664E-005     4.8653936611515812E-002
   6.3266666666666655E-005     3.5100560699664350E-002
   6.3466666666666660E-005     2.0984218395510769E-002
   6.3666666666666665E-005     6.3943062730706726E-003
   6.3866666666666656E-005    -8.5854961668197227E-003
   6.4066666666666661E-005    -2.3872171172584687E-002
   6.4266666666666666E-005    -3.9375411791637935E-002
   6.4466666666666657E-005    -5.4989414279993126E-002
   6.4666666666666662E-005    -7.0587554276467734E-002
   6.4866666666666667E-005    -8.6022432829730655E-002
   6.5066666666666658E-005   -0.10113227724285689     
   6.5266666666666663E-005   -0.11575274909592390     
   6.5466666666666654E-005   -0.12973107038769613     
   6.5666666666666659E-005   -0.14293866798639993     
   6.5866666666666664E-005   -0.15527834476061006     
   6.6066666666666655E-005   -0.16668378736248393     
   6.6266666666666660E-005   -0.17711132313909650     
   6.6466666666666665E-005   -0.18652643473422004     
   6.6666666666666656E-005   -0.19488930669970259     
   6.6866666666666661E-005   -0.20214421174761701     
   6.7066666666666666E-005   -0.20821622597583725     
   6.7266666666666657E-005   -0.21301672811818859     
   6.7466666666666662E-005   -0.21645589617457381     
   6.7666666666666667E-005   -0.21845841408816630     
   6.7866666666666658E-005   -0.21897715707409929     
   6.8066666666666663E-005   -0.21800029557674785     
   6.8266666666666655E-005   -0.21554958125702020     
   6.8466666666666659E-005   -0.21167028455921857     
   6.8666666666666664E-005   -0.20641642360657078     
   6.8866666666666656E-005   -0.19983649255458424     
   6.9066666666666660E-005   -0.19196483203393711     
   6.9266666666666665E-005   -0.18282211696125414     
   6.9466666666666657E-005   -0.17242514044820251     
   6.9666666666666661E-005   -0.16080277138202437     
   6.9866666666666666E-005   -0.14801290364695591     
   7.0066666666666658E-005   -0.13415418005709834     
   7.0266666666666662E-005   -0.11936813701771515     
   7.0466666666666654E-005   -0.10383012543740019     
   7.0666666666666659E-005    -8.7731252045035429E-002
   7.0866666666666664E-005    -7.1256419631236800E-002
   7.1066666666666655E-005    -5.4565153260433957E-002
   7.1266666666666660E-005    -3.7780821071223623E-002
   7.1466666666666665E-005    -2.0991524566429436E-002
   7.1666666666666656E-005    -4.2618367564715570E-003
   7.1866666666666661E-005     1.2348696199216622E-002
   7.2066666666666666E-005     2.8766660099090988E-002
   7.2266666666666657E-005     4.4891896171214550E-002
   7.2466666666666662E-005     6.0594817920141646E-002
   7.2666666666666667E-005     7.5724741051080388E-002
   7.2866666666666658E-005     9.0126171516700923E-002
   7.3066666666666663E-005    0.10365738807860131     
   7.3266666666666654E-005    0.11620493361471257     
   7.3466666666666659E-005    0.12768916012964515     
   7.3666666666666664E-005    0.13805910373391864     
   7.3866666666666655E-005    0.14727888658754013     
   7.4066666666666660E-005    0.15531067009660923     
   7.4266666666666665E-005    0.16210074859074414     
   7.4466666666666656E-005    0.16757396557591955     
   7.4666666666666661E-005    0.17163923035621564     
   7.4866666666666666E-005    0.17420460810258356     
   7.5066666666666657E-005    0.17519738921617672     
   7.5266666666666662E-005    0.17458258386061484     
   7.5466666666666653E-005    0.17237362123181038     