  -3.3333333333333335E-005     0.0000000000000000     
  -3.3133333333333337E-005     0.0000000000000000     
  -3.2933333333333332E-005     0.0000000000000000     
  -3.2733333333333334E-005     0.0000000000000000     
  -3.2533333333333336E-005     0.0000000000000000     
  -3.2333333333333338E-005     0.0000000000000000     
  -3.2133333333333333E-005     0.0000000000000000     
  -3.1933333333333335E-005     0.0000000000000000     
  -3.1733333333333337E-005     0.0000000000000000     
  -3.1533333333333332E-005     0.0000000000000000     
  -3.1333333333333334E-005     8.4626788878260827E-036
  -3.1133333333333336E-005    -1.6233751103136242E-035
  -3.0933333333333338E-005     4.6239080656510937E-032
  -3.0733333333333333E-005     9.0997077709094424E-031
  -3.0533333333333335E-005     8.8017178864550207E-030
  -3.0333333333333337E-005     5.4901553794211463E-029
  -3.0133333333333335E-005     2.3857191839078849E-028
  -2.9933333333333334E-005     6.8931824904434029E-028
  -2.9733333333333336E-005     7.2970662984833054E-028
  -2.9533333333333334E-005    -5.6061759626333944E-027
  -2.9333333333333336E-005    -4.6085019255740842E-026
  -2.9133333333333334E-005    -2.1820060359617085E-025
  -2.8933333333333336E-005    -8.0286616008833671E-025
  -2.8733333333333335E-005    -2.4828689020980348E-024
  -2.8533333333333333E-005    -6.6561234385847176E-024
  -2.8333333333333335E-005    -1.5641046816692653E-023
  -2.8133333333333337E-005    -3.2097716327766425E-023
  -2.7933333333333336E-005    -5.6107340321317386E-023
  -2.7733333333333334E-005    -7.7120904279239204E-023
  -2.7533333333333336E-005    -5.6980629390514367E-023
  -2.7333333333333335E-005     9.9006031712449540E-023
  -2.7133333333333333E-005     5.8046010054514333E-022
  -2.6933333333333335E-005     1.7029242760911251E-021
  -2.6733333333333337E-005     3.8873740482430002E-021
  -2.6533333333333336E-005     7.5040668909263582E-021
  -2.6333333333333334E-005     1.2453580203147501E-020
  -2.6133333333333336E-005     1.7340036805493015E-020
  -2.5933333333333335E-005     1.8151054837784951E-020
  -2.5733333333333333E-005     6.5705410682241537E-021
  -2.5533333333333335E-005    -3.1507878755573159E-020
  -2.5333333333333337E-005    -1.1599098834524218E-019
  -2.5133333333333336E-005    -2.6895005998254941E-019
  -2.4933333333333334E-005    -5.0438147462246223E-019
  -2.4733333333333336E-005    -8.0830758382294400E-019
  -2.4533333333333334E-005    -1.1076348798533056E-018
  -2.4333333333333333E-005    -1.2302703630269025E-018
  -2.4133333333333335E-005    -8.6650737903745274E-019
  -2.3933333333333337E-005     4.4740840582503683E-019
  -2.3733333333333335E-005     3.2900797557374903E-018
  -2.3533333333333334E-005     8.2167324024712950E-018
  -2.3333333333333336E-005     1.5478388211765441E-017
  -2.3133333333333338E-005     2.4573905745470521E-017
  -2.2933333333333336E-005     3.3658292756883026E-017
  -2.2733333333333335E-005     3.8913404851328966E-017
  -2.2533333333333337E-005     3.4101174764584905E-017
  -2.2333333333333335E-005     1.0645676713400340E-017
  -2.2133333333333334E-005    -4.1310647974029088E-017
  -2.1933333333333336E-005    -1.3041947009320648E-016
  -2.1733333333333338E-005    -2.5989870239439566E-016
  -2.1533333333333336E-005    -4.2163187687964611E-016
  -2.1333333333333335E-005    -5.8930211293636989E-016
  -2.1133333333333337E-005    -7.1213930642229028E-016
  -2.0933333333333335E-005    -7.1182565290104492E-016
  -2.0733333333333334E-005    -4.8591046483588898E-016
  -2.0533333333333336E-005     7.8641246472061983E-017
  -2.0333333333333337E-005     1.0788334318752884E-015
  -2.0133333333333336E-005     2.5550695065070269E-015
  -1.9933333333333334E-005     4.4393473818258078E-015
  -1.9733333333333336E-005     6.4999480247389145E-015
  -1.9533333333333335E-005     8.2961049493838373E-015
  -1.9333333333333333E-005     9.1613953408536960E-015
  -1.9133333333333335E-005     8.2376162084989585E-015
  -1.8933333333333337E-005     4.5796116070520449E-015
  -1.8733333333333336E-005    -2.6558922682337367E-015
  -1.8533333333333334E-005    -1.3939115717382260E-014
  -1.8333333333333336E-005    -2.9037082249539856E-014
  -1.8133333333333335E-005    -4.6674333455202852E-014
  -1.7933333333333337E-005    -6.4261169936090642E-014
  -1.7733333333333335E-005    -7.7786869689046440E-014
  -1.7533333333333337E-005    -8.1982444075140778E-014
  -1.7333333333333336E-005    -7.0843671705843638E-014
  -1.7133333333333334E-005    -3.8565003805029919E-014
  -1.6933333333333336E-005     1.9132859291908662E-014
  -1.6733333333333335E-005     1.0338994294273894E-013
  -1.6533333333333337E-005     2.1051998156683480E-013
  -1.6333333333333335E-005     3.3055968184932721E-013
  -1.6133333333333337E-005     4.4643643156056818E-013
  -1.5933333333333336E-005     5.3416002813672859E-013
  -1.5733333333333334E-005     5.6439781737730917E-013
  -1.5533333333333336E-005     5.0566492695309389E-013
  -1.5333333333333334E-005     3.2915095839985414E-013
  -1.5133333333333336E-005     1.4923652235124095E-014
  -1.4933333333333335E-005    -4.4107246118136996E-013
  -1.4733333333333337E-005    -1.0201308499131611E-012
  -1.4533333333333335E-005    -1.6751955650388869E-012
  -1.4333333333333337E-005    -2.3279326008398024E-012
  -1.4133333333333336E-005    -2.8698426156362534E-012
  -1.3933333333333334E-005    -3.1686211022584843E-012
  -1.3733333333333336E-005    -3.0805665393338971E-012
  -1.3533333333333335E-005    -2.4691895653302062E-012
  -1.3333333333333337E-005    -1.2293038049518442E-012
  -1.3133333333333335E-005     6.8518298053470528E-013
  -1.2933333333333337E-005     3.2327211471900467E-012
  -1.2733333333333336E-005     6.2589005061322912E-012
  -1.2533333333333338E-005     9.4795892453068353E-012
  -1.2333333333333336E-005     1.2478008291625186E-011
  -1.2133333333333335E-005     1.4721164839489042E-011
  -1.1933333333333337E-005     1.5600069354634017E-011
  -1.1733333333333335E-005     1.4495982073278808E-011
  -1.1533333333333337E-005     1.0871613787716243E-011
  -1.1333333333333336E-005     4.3817695171197919E-012
  -1.1133333333333337E-005    -5.0072942980336974E-012
  -1.0933333333333336E-005    -1.6905823127689579E-011
  -1.0733333333333334E-005    -3.0416401106577033E-011
  -1.0533333333333336E-005    -4.4100839497167254E-011
  -1.0333333333333335E-005    -5.6020843496180600E-011
  -1.0133333333333337E-005    -6.3870575152903002E-011
  -9.9333333333333354E-006    -6.5209888075875804E-011
  -9.7333333333333373E-006    -5.7793080348139391E-011
  -9.5333333333333358E-006    -3.9970398412764543E-011
  -9.3333333333333343E-006    -1.1120176115699317E-011
  -9.1333333333333362E-006     2.7948424146582840E-011
  -8.9333333333333348E-006     7.4695350096492003E-011
  -8.7333333333333367E-006     1.2473002150167682E-010
  -8.5333333333333352E-006     1.7194246606511257E-010
  -8.3333333333333371E-006     2.0893433476845545E-010
  -8.1333333333333356E-006     2.2776339844552677E-010
  -7.9333333333333376E-006     2.2096838923402483E-010
  -7.7333333333333361E-006     1.8278711830706979E-010
  -7.5333333333333346E-006     1.1042844648382194E-010
  -7.3333333333333365E-006     5.2154245145419266E-012
  -7.1333333333333351E-006    -1.2660625606653815E-010
  -6.9333333333333370E-006    -2.7359618344805255E-010
  -6.7333333333333355E-006    -4.1954789271787227E-010
  -6.5333333333333374E-006    -5.4471022702042436E-010
  -6.3333333333333359E-006    -6.2779265716878847E-010
  -6.1333333333333379E-006    -6.4862285714885494E-010
  -5.9333333333333364E-006    -5.9120025730931796E-010
  -5.7333333333333349E-006    -4.4677687315554649E-010
  -5.5333333333333368E-006    -2.1652131108571636E-010
  -5.3333333333333354E-006     8.6701213159790322E-011
  -5.1333333333333373E-006     4.3785648244978887E-010
  -4.9333333333333358E-006     8.0088365125059281E-010
  -4.7333333333333377E-006     1.1315789263604716E-009
  -4.5333333333333362E-006     1.3821144670071521E-009
  -4.3333333333333348E-006     1.5068325491483094E-009
  -4.1333333333333367E-006     1.4687112738342994E-009
  -3.9333333333333352E-006     1.2457068521742474E-009
  -3.7333333333333371E-006     8.3606913319882958E-010
  -3.5333333333333356E-006     2.6173631036864283E-010
  -3.3333333333333376E-006    -4.3094818101770223E-010
  -3.1333333333333361E-006    -1.1736861454104940E-009
  -2.9333333333333346E-006    -1.8819582624826524E-009
  -2.7333333333333365E-006    -2.4637198746128636E-009
  -2.5333333333333384E-006    -2.8302781141971462E-009
  -2.3333333333333336E-006    -2.9081763265781318E-009
  -2.1333333333333355E-006    -2.6506181736198197E-009
  -1.9333333333333374E-006    -2.0468499269149709E-009
  -1.7333333333333393E-006    -1.1280061541274267E-009
  -1.5333333333333345E-006     3.1772227372051322E-011
  -1.3333333333333364E-006     1.3196391419016995E-009
  -1.1333333333333383E-006     2.5938090387308882E-009
  -9.3333333333333343E-007     3.6981085000403831E-009
  -7.3333333333333535E-007     4.4799428133416203E-009
  -5.3333333333333726E-007     4.8097140518968976E-009
  -3.3333333333333918E-007     4.5993596416680339E-009
  -1.3333333333333432E-007     3.8175688775441430E-009
   6.6666666666663770E-008     2.4994512708126571E-009
   2.6666666666666185E-007     7.4893432532155070E-010
   4.6666666666666672E-007    -1.2670516981525035E-009
   6.6666666666666480E-007    -3.3326009865875023E-009
   8.6666666666666289E-007    -5.2040526907484225E-009
   1.0666666666666610E-006    -6.6364336797247410E-009
   1.2666666666666658E-006    -7.4123824671926107E-009
   1.4666666666666639E-006    -7.3703282729469816E-009
   1.6666666666666620E-006    -6.4285790283365226E-009
   1.8666666666666669E-006    -4.6022350672451087E-009
   2.0666666666666649E-006    -2.0104849514537904E-009
   2.2666666666666630E-006     1.1272203809847074E-009
   2.4666666666666611E-006     4.5064689242664133E-009
   2.6666666666666660E-006     7.7637769173726533E-009
   2.8666666666666641E-006     1.0511010203719233E-008
   3.0666666666666622E-006     1.2375260707281398E-008
   3.2666666666666602E-006     1.3040389818013461E-008
   3.4666666666666651E-006     1.2286089431577382E-008
   3.6666666666666632E-006     1.0020336356733274E-008
   3.8666666666666613E-006     6.3015641957660107E-009
   4.0666666666666661E-006     1.3476404492685435E-009
   4.2666666666666642E-006    -4.4701620783840832E-009
   4.4666666666666623E-006    -1.0648741140513035E-008
   4.6666666666666604E-006    -1.6589447773348106E-008
   4.8666666666666652E-006    -2.1646869431292054E-008
   5.0666666666666633E-006    -2.5186652172186251E-008
   5.2666666666666614E-006    -2.6647837079079455E-008
   5.4666666666666663E-006    -2.5604497386102243E-008
   5.6666666666666644E-006    -2.1821054268242180E-008
   5.8666666666666624E-006    -1.5295735020531346E-008
   6.0666666666666605E-006    -6.2871789229260695E-009
   6.2666666666666654E-006     4.6798356222276071E-009
   6.4666666666666635E-006     1.6832138037648360E-008
   6.6666666666666616E-006     2.9190209539619653E-008
   6.8666666666666664E-006     4.0633282040183416E-008
   7.0666666666666645E-006     4.9984179151620565E-008
   7.2666666666666626E-006     5.6108401915375192E-008
   7.4666666666666607E-006     5.8020265876202943E-008
   7.6666666666666655E-006     5.4987418272800787E-008
   7.8666666666666636E-006     4.6624414821387186E-008
   8.0666666666666617E-006     3.2966010003310445E-008
   8.2666666666666598E-006     1.4511743697806523E-008
   8.4666666666666647E-006    -7.7649276904227793E-009
   8.6666666666666627E-006    -3.2447176619134838E-008
   8.8666666666666608E-006    -5.7746153666037536E-008
   9.0666666666666657E-006    -8.1610904868726544E-008
   9.2666666666666638E-006    -1.0187101185603975E-007
   9.4666666666666619E-006    -1.1640298053220448E-007
   9.6666666666666599E-006    -1.2330862846243751E-007
   9.8666666666666648E-006    -1.2109202491910848E-007
   1.0066666666666663E-005    -1.0882062056331676E-007
   1.0266666666666661E-005    -8.6256687275852590E-008
   1.0466666666666666E-005    -5.3946590407714473E-008
   1.0666666666666664E-005    -1.3258058396577382E-008
   1.0866666666666662E-005     3.3641206682739587E-008
   1.1066666666666660E-005     8.3866181661411103E-008
   1.1266666666666665E-005     1.3395701951658364E-007
   1.1466666666666663E-005     1.8007582719525371E-007
   1.1666666666666661E-005     2.1824830439247372E-007
   1.1866666666666666E-005     2.4463787373419663E-007
   1.2066666666666664E-005     2.5583669141200991E-007
   1.2266666666666662E-005     2.4915673391138479E-007
   1.2466666666666660E-005     2.2290225161927593E-007
   1.2666666666666665E-005     1.7660481848151993E-007
   1.2866666666666663E-005     1.1120219393212789E-007
   1.3066666666666661E-005     2.9143201319651229E-008
   1.3266666666666666E-005    -6.5597260484909969E-008
   1.3466666666666664E-005    -1.6760618884644203E-007
   1.3666666666666662E-005    -2.7023245534012943E-007
   1.3866666666666660E-005    -3.6590221982590140E-007
   1.4066666666666665E-005    -4.4654628030347882E-007
   1.4266666666666663E-005    -5.0412733727710199E-007
   1.4466666666666661E-005    -5.3124535209748044E-007
   1.4666666666666666E-005    -5.2178930138341981E-007
   1.4866666666666664E-005    -4.7159276512580152E-007
   1.5066666666666662E-005    -3.7904235092842465E-007
   1.5266666666666661E-005    -2.4558147474647590E-007
   1.5466666666666665E-005    -7.6049365950195865E-008
   1.5666666666666663E-005     1.2120198107716246E-007
   1.5866666666666662E-005     3.3446174824198596E-007
   1.6066666666666660E-005     5.4911806893022711E-007
   1.6266666666666665E-005     7.4843166814572948E-007
   1.6466666666666663E-005     9.1460967326057204E-007
   1.6666666666666661E-005     1.0301329658958618E-006
   1.6866666666666666E-005     1.0792598633743445E-006
   1.7066666666666664E-005     1.0495972983882020E-006
   1.7266666666666662E-005     9.3360854912373355E-007
   1.7466666666666660E-005     7.2991086741063217E-007
   1.7666666666666665E-005     4.4421359862583798E-007
   1.7866666666666663E-005     8.9759974660192556E-008
   1.8066666666666661E-005    -3.1283751964511897E-007
   1.8266666666666666E-005    -7.3643482645140744E-007
   1.8466666666666664E-005    -1.1488810208739128E-006
   1.8666666666666662E-005    -1.5151770365698700E-006
   1.8866666666666660E-005    -1.8001518781806464E-006
   1.9066666666666665E-005    -1.9714737333868175E-006
   1.9266666666666663E-005    -2.0027600311720045E-006
   1.9466666666666661E-005    -1.8765145856429006E-006
   1.9666666666666666E-005    -1.5866039917292835E-006
   1.9866666666666664E-005    -1.1399974412463333E-006
   2.0066666666666662E-005    -5.5753391665123001E-007
   2.0266666666666660E-005     1.2645372413814793E-007
   2.0466666666666665E-005     8.6573845991605056E-007
   2.0666666666666663E-005     1.6049981554217056E-006
   2.0866666666666661E-005     2.2836767456320514E-006
   2.1066666666666659E-005     2.8406604932751327E-006
   2.1266666666666664E-005     3.2194271058088466E-006
   2.1466666666666662E-005     3.3732490477461300E-006
   2.1666666666666660E-005     3.2700005294319145E-006
   2.1866666666666665E-005     2.8961089814245642E-006
   2.2066666666666663E-005     2.2592380912241102E-006
   2.2266666666666661E-005     1.3893704417259625E-006
   2.2466666666666659E-005     3.3807261008553693E-007
   2.2666666666666664E-005    -8.2412607301443376E-007
   2.2866666666666662E-005    -2.0121510791205036E-006
   2.3066666666666660E-005    -3.1323467664385870E-006
   2.3266666666666665E-005    -4.0895809520434377E-006
   2.3466666666666663E-005    -4.7949658612409593E-006
   2.3666666666666661E-005    -5.1735850327191384E-006
   2.3866666666666660E-005    -5.1715748609238483E-006
   2.4066666666666664E-005    -4.7619326884638404E-006
   2.4266666666666662E-005    -3.9484905915091674E-006
   2.4466666666666661E-005    -2.7676151043979604E-006
   2.4666666666666665E-005    -1.2873650394707136E-006
   2.4866666666666663E-005     3.9597090848533932E-007
   2.5066666666666662E-005     2.1638208338199296E-006
   2.5266666666666660E-005     3.8834072612647782E-006
   2.5466666666666665E-005     5.4174278488544456E-006
   2.5666666666666663E-005     6.6346315903460820E-006
   2.5866666666666661E-005     7.4204977813836668E-006
   2.6066666666666666E-005     7.6871668743130513E-006
   2.6266666666666664E-005     7.3817992060257431E-006
   2.6466666666666662E-005     6.4926208330939486E-006
   2.6666666666666660E-005     5.0520715249078575E-006
   2.6866666666666665E-005     3.1366723173723542E-006
   2.7066666666666663E-005     8.6347315596612451E-007
   2.7266666666666661E-005    -1.6167962596370963E-006
   2.7466666666666666E-005    -4.1294835717121411E-006
   2.7666666666666664E-005    -6.4880509069796963E-006
   2.7866666666666662E-005    -8.5075617748805019E-006
   2.8066666666666667E-005    -1.0018640758480778E-005
   2.8266666666666658E-005    -1.0880867789905897E-005
   2.8466666666666663E-005    -1.0994564951862253E-005
   2.8666666666666668E-005    -1.0310033143581847E-005
   2.8866666666666659E-005    -8.8334564151143276E-006
   2.9066666666666664E-005    -6.6289195585411517E-006
   2.9266666666666669E-005    -3.8162659648851104E-006
   2.9466666666666660E-005    -5.6482388961208996E-007
   2.9666666666666665E-005     2.9166630002700248E-006
   2.9866666666666656E-005     6.3932790797406095E-006
   3.0066666666666661E-005     9.6194827363147050E-006
   3.0266666666666666E-005     1.2355913050740232E-005
   3.0466666666666657E-005     1.4386296398710633E-005
   3.0666666666666662E-005     1.5533267989668270E-005
   3.0866666666666667E-005     1.5672004993789042E-005
   3.1066666666666658E-005     1.4740684373255648E-005
   3.1266666666666663E-005     1.2746996481560932E-005
   3.1466666666666668E-005     9.7702229444518687E-006
   3.1666666666666659E-005     5.9586521571621037E-006
   3.1866666666666664E-005     1.5224341420226492E-006
   3.2066666666666656E-005    -3.2777405191035524E-006
   3.2266666666666660E-005    -8.1454859160927996E-006
   3.2466666666666665E-005    -1.2766214159105527E-005
   3.2666666666666657E-005    -1.6826252549531595E-005
   3.2866666666666661E-005    -2.0032446316617125E-005
   3.3066666666666666E-005    -2.2131104183473791E-005
   3.3266666666666658E-005    -2.2925140059193425E-005
   3.3466666666666662E-005    -2.2288436426101517E-005
   3.3666666666666667E-005    -2.0176501218091114E-005
   3.3866666666666659E-005    -1.6632796294637219E-005
   3.4066666666666664E-005    -1.1790242571167572E-005
   3.4266666666666668E-005    -5.8677104225464960E-006
   3.4466666666666660E-005     8.3847076302388763E-007
   3.4666666666666665E-005     7.9676953113334290E-006
   3.4866666666666656E-005     1.5112435372968790E-005
   3.5066666666666661E-005     2.1839000573744278E-005
   3.5266666666666666E-005     2.7710785921699499E-005
   3.5466666666666657E-005     3.2312894614560436E-005
   3.5666666666666662E-005     3.5276927705039219E-005
   3.5866666666666667E-005     3.6304630610587271E-005
   3.6066666666666658E-005     3.5189147205094385E-005
   3.6266666666666663E-005     3.1832564378596798E-005
   3.6466666666666668E-005     2.6258623022111486E-005
   3.6666666666666659E-005     1.8619619561903506E-005
   3.6866666666666664E-005     9.1967347253351913E-006
   3.7066666666666669E-005    -1.6066606685545671E-006
   3.7266666666666660E-005    -1.3278833913238397E-005
   3.7466666666666665E-005    -2.5220404357508779E-005
   3.7666666666666656E-005    -3.6771283007710431E-005
   3.7866666666666661E-005    -4.7242794385902388E-005
   3.8066666666666666E-005    -5.5953558668493985E-005
   3.8266666666666657E-005    -6.2267466302961080E-005
   3.8466666666666662E-005    -6.5631718738877776E-005
   3.8666666666666667E-005    -6.5612920590244207E-005
   3.8866666666666658E-005    -6.1929011918640848E-005
   3.9066666666666663E-005    -5.4475125931994754E-005
   3.9266666666666668E-005    -4.3341511730648189E-005
   3.9466666666666659E-005    -2.8822081245589083E-005
   3.9666666666666664E-005    -1.1412627168352596E-005
   3.9866666666666655E-005     8.2017775687319245E-006
   4.0066666666666660E-005     2.9170035352765380E-005
   4.0266666666666665E-005     5.0508247729338499E-005
   4.0466666666666656E-005     7.1141512063770606E-005
   4.0666666666666661E-005     8.9952580895164228E-005
   4.0866666666666666E-005     1.0583498835578814E-004
   4.1066666666666657E-005     1.1774822008457726E-004
   4.1266666666666662E-005     1.2477218241770805E-004
   4.1466666666666667E-005     1.2615821923047827E-004
   4.1666666666666658E-005     1.2137425404414121E-004
   4.1866666666666663E-005     1.1014171969103950E-004
   4.2066666666666668E-005     9.2462439515728374E-005
   4.2266666666666660E-005     6.8634160970019548E-005
   4.2466666666666664E-005     3.9253918838103366E-005
   4.2666666666666656E-005     5.2089987582256813E-006
   4.2866666666666661E-005    -3.2344137233398067E-005
   4.3066666666666665E-005    -7.2012185578244220E-005
   4.3266666666666657E-005    -1.1220723597636667E-004
   4.3466666666666662E-005    -1.5119733213552709E-004
   4.3666666666666666E-005    -1.8716325344713994E-004
   4.3866666666666658E-005    -2.1825955546249701E-004
   4.4066666666666663E-005    -2.4267736396611328E-004
   4.4266666666666667E-005    -2.5870673360552587E-004
   4.4466666666666659E-005    -2.6479602344630618E-004
   4.4666666666666664E-005    -2.5960608151490361E-004
   4.4866666666666655E-005    -2.4205699032338985E-004
   4.5066666666666660E-005    -2.1136502653043698E-004
   4.5266666666666665E-005    -1.6706842161582578E-004
   4.5466666666666656E-005    -1.0903988914711402E-004
   4.5666666666666661E-005    -3.7484991254011147E-005
   4.5866666666666666E-005     4.7074490236897684E-005
   4.6066666666666657E-005     1.4383222316598676E-004
   4.6266666666666662E-005     2.5174376900889922E-004
   4.6466666666666667E-005     3.6958627971772997E-004
   4.6666666666666658E-005     4.9602959978559005E-004
   4.6866666666666663E-005     6.2971605658169007E-004
   4.7066666666666668E-005     7.6934522184370123E-004
   4.7266666666666659E-005     9.1375997780077990E-004
   4.7466666666666664E-005     1.0620289793621790E-003
   4.7666666666666655E-005     1.2135212178148082E-003
   4.7866666666666660E-005     1.3679685525516477E-003
   4.8066666666666665E-005     1.5255101535638651E-003
   4.8266666666666656E-005     1.6867183270893647E-003
   4.8466666666666661E-005     1.8526006471473611E-003
   4.8666666666666666E-005     2.0245780704193435E-003
   4.8866666666666657E-005     2.2044386825682731E-003
   4.9066666666666662E-005     2.3942691242467176E-003
   4.9266666666666667E-005     2.5963649274282300E-003
   4.9466666666666658E-005     2.8131242993909315E-003
   4.9666666666666663E-005     3.0469325008476295E-003
   4.9866666666666655E-005     3.3000374531498805E-003
   5.0066666666666659E-005     3.5744288997081580E-003
   5.0266666666666664E-005     3.8717223271188643E-003
   5.0466666666666656E-005     4.1930558971736394E-003
   5.0666666666666660E-005     4.5390051660390311E-003
   5.0866666666666665E-005     4.9095205331769658E-003
   5.1066666666666657E-005     5.3038860530298972E-003
   5.1266666666666661E-005     5.7207095359088104E-003
   5.1466666666666666E-005     6.1579340336188945E-003
   5.1666666666666658E-005     6.6128755143830160E-003
   5.1866666666666662E-005     7.0822832803185739E-003
   5.2066666666666667E-005     7.5624191010939821E-003
   5.2266666666666659E-005     8.0491427065790475E-003
   5.2466666666666664E-005     8.5380160940520516E-003
   5.2666666666666655E-005     9.0244005271885117E-003
   5.2866666666666660E-005     9.5035560229686893E-003
   5.3066666666666665E-005     9.9707298993229384E-003
   5.3266666666666656E-005     1.0421231672846545E-002
   5.3466666666666661E-005     1.0850496694686233E-002
   5.3666666666666666E-005     1.1254126471063179E-002
   5.3866666666666657E-005     1.1627909248532554E-002
   5.4066666666666662E-005     1.1967823444350899E-002
   5.4266666666666667E-005     1.2270017939476494E-002
   5.4466666666666658E-005     1.2530774176367641E-002
   5.4666666666666663E-005     1.2746454623516160E-002
   5.4866666666666668E-005     1.2913432166060414E-002
   5.5066666666666659E-005     1.3028018968617827E-002
   5.5266666666666664E-005     1.3086384068025729E-002
   5.5466666666666655E-005     1.3084463742050351E-002
   5.5666666666666660E-005     1.3017883397407759E-002
   5.5866666666666665E-005     1.2881877108504325E-002
   5.6066666666666656E-005     1.2671215401972743E-002
   5.6266666666666661E-005     1.2380152797308315E-002
   5.6466666666666666E-005     1.2002375085803624E-002
   5.6666666666666657E-005     1.1530979089663690E-002
   5.6866666666666662E-005     1.0958459152915901E-002
   5.7066666666666667E-005     1.0276722430488107E-002
   5.7266666666666658E-005     9.4771254909215355E-003
   5.7466666666666663E-005     8.5505315487345353E-003
   5.7666666666666654E-005     7.4873962946620017E-003
   5.7866666666666659E-005     6.2778759814251413E-003
   5.8066666666666664E-005     4.9119636669468399E-003
   5.8266666666666655E-005     3.3796438004139381E-003
   5.8466666666666660E-005     1.6710682269647096E-003
   5.8666666666666665E-005    -2.2324673308811682E-004
   5.8866666666666656E-005    -2.3122196175382618E-003
   5.9066666666666661E-005    -4.6039883346396006E-003
   5.9266666666666666E-005    -7.1056995378688398E-003
   5.9466666666666657E-005    -9.8233043221875004E-003
   5.9666666666666662E-005    -1.2761370048353683E-002
   5.9866666666666667E-005    -1.5922911694985303E-002
   6.0066666666666659E-005    -1.9309260156683272E-002
   6.0266666666666663E-005    -2.2919949757068861E-002
   6.0466666666666655E-005    -2.6752665632443124E-002
   6.0666666666666660E-005    -3.0803224772177121E-002
   6.0866666666666664E-005    -3.5065596923403060E-002
   6.1066666666666656E-005    -3.9531977303711600E-002
   6.1266666666666661E-005    -4.4192884436985498E-002
   6.1466666666666665E-005    -4.9037307671483600E-002
   6.1666666666666657E-005    -5.4052871222539857E-002
   6.1866666666666662E-005    -5.9226007864481109E-002
   6.2066666666666666E-005    -6.4542164741966779E-002
   6.2266666666666658E-005    -6.9985976930425631E-002
   6.2466666666666663E-005    -7.5541469902341063E-002
   6.2666666666666668E-005    -8.1192213427445273E-002
   6.2866666666666659E-005    -8.6921477868506944E-002
   6.3066666666666664E-005    -9.2712347812474893E-002
   6.3266666666666655E-005    -9.8547806823007678E-002
   6.3466666666666660E-005   -0.10441082580392361     
   6.3666666666666665E-005   -0.11028440449695222     
   6.3866666666666656E-005   -0.11615158906726110     
   6.4066666666666661E-005   -0.12199551564721763     
   6.4266666666666666E-005   -0.12779939035292542     
   6.4466666666666657E-005   -0.13354649834942039     
   6.4666666666666662E-005   -0.13922026672340973     
   6.4866666666666667E-005   -0.14480420257848980     
   6.5066666666666658E-005   -0.15028199347482474     
   6.5266666666666663E-005   -0.15563751944408241     
   6.5466666666666654E-005   -0.16085495796573618     
   6.5666666666666659E-005   -0.16591880937715831     
   6.5866666666666664E-005   -0.17081402996655140     
   6.6066666666666655E-005   -0.17552613338548034     
   6.6266666666666660E-005   -0.18004130838119781     
   6.6466666666666665E-005   -0.18434649733307509     
   6.6666666666666656E-005   -0.18842959066585133     
   6.6866666666666661E-005   -0.19227952001425125     
   6.7066666666666666E-005   -0.19588634930876980     
   6.7266666666666657E-005   -0.19924149229701302     
   6.7466666666666662E-005   -0.20233775071602284     
   6.7666666666666667E-005   -0.20516948130195595     
   6.7866666666666658E-005   -0.20773267266566639     
   6.8066666666666663E-005   -0.21002504259011909     
   6.8266666666666655E-005   -0.21204616344193578     
   6.8466666666666659E-005   -0.21379738999389122     
   6.8666666666666664E-005   -0.21528205263336386     
   6.8866666666666656E-005   -0.21650533605459504     
   6.9066666666666660E-005   -0.21747426369885434     
   6.9266666666666665E-005   -0.21819766039451524     
   6.9466666666666657E-005   -0.21868602738446913     
   6.9666666666666661E-005   -0.21895139005377398     
   6.9866666666666666E-005   -0.21900706880045731     
   7.0066666666666658E-005   -0.21886754146351139     
   7.0266666666666662E-005   -0.21854803629269101     
   7.0466666666666654E-005   -0.21806436968890264     
   7.0666666666666659E-005   -0.21743262109234821     
   7.0866666666666664E-005   -0.21666877248471567     
   7.1066666666666655E-005   -0.21578851334583168     
   7.1266666666666660E-005   -0.21480681575144908     
   7.1466666666666665E-005   -0.21373775484906274     
   7.1666666666666656E-005   -0.21259417930704894     
   7.1866666666666661E-005   -0.21138758001686656     
   7.2066666666666666E-005   -0.21012781235505928     
   7.2266666666666657E-005   -0.20882295162837647     
   7.2466666666666662E-005   -0.20747923713990130     
   7.2666666666666667E-005   -0.20610092000705960     
   7.2866666666666658E-005   -0.20469026413562019     
   7.3066666666666663E-005   -0.20324748807297074     
   7.3266666666666654E-005   -0.20177085143810214     
   7.3466666666666659E-005   -0.20025665777725621     
   7.3666666666666664E-005   -0.19869936305940517     
   7.3866666666666655E-005   -0.19709169258410725     
   7.4066666666666660E-005   -0.19542478381309397     
   7.4266666666666665E-005   -0.19368840642898452     
   7.4466666666666656E-005   -0.19187109266745470     
   7.4666666666666661E-005   -0.18996039844972304     
   7.4866666666666666E-005   -0.18794315763222591     
   7.5066666666666657E-005   -0.18580571070926219     
   7.5266666666666662E-005   -0.18353419303019414     
   7.5466666666666653E-005   -0.18111477331894821     