  -3.3333333333333335E-005     0.0000000000000000     
  -3.3133333333333337E-005     0.0000000000000000     
  -3.2933333333333332E-005     0.0000000000000000     
  -3.2733333333333334E-005     0.0000000000000000     
  -3.2533333333333336E-005     0.0000000000000000     
  -3.2333333333333338E-005     0.0000000000000000     
  -3.2133333333333333E-005     0.0000000000000000     
  -3.1933333333333335E-005     0.0000000000000000     
  -3.1733333333333337E-005     0.0000000000000000     
  -3.1533333333333332E-005     0.0000000000000000     
  -3.1333333333333334E-005     0.0000000000000000     
  -3.1133333333333336E-005     0.0000000000000000     
  -3.0933333333333338E-005     0.0000000000000000     
  -3.0733333333333333E-005     0.0000000000000000     
  -3.0533333333333335E-005     0.0000000000000000     
  -3.0333333333333337E-005     0.0000000000000000     
  -3.0133333333333335E-005     0.0000000000000000     
  -2.9933333333333334E-005     0.0000000000000000     
  -2.9733333333333336E-005     0.0000000000000000     
  -2.9533333333333334E-005     0.0000000000000000     
  -2.9333333333333336E-005     0.0000000000000000     
  -2.9133333333333334E-005     0.0000000000000000     
  -2.8933333333333336E-005     0.0000000000000000     
  -2.8733333333333335E-005     0.0000000000000000     
  -2.8533333333333333E-005     0.0000000000000000     
  -2.8333333333333335E-005     0.0000000000000000     
  -2.8133333333333337E-005     0.0000000000000000     
  -2.7933333333333336E-005     0.0000000000000000     
  -2.7733333333333334E-005     0.0000000000000000     
  -2.7533333333333336E-005     0.0000000000000000     
  -2.7333333333333335E-005     0.0000000000000000     
  -2.7133333333333333E-005     0.0000000000000000     
  -2.6933333333333335E-005     0.0000000000000000     
  -2.6733333333333337E-005     0.0000000000000000     
  -2.6533333333333336E-005     0.0000000000000000     
  -2.6333333333333334E-005     0.0000000000000000     
  -2.6133333333333336E-005     0.0000000000000000     
  -2.5933333333333335E-005     0.0000000000000000     
  -2.5733333333333333E-005     0.0000000000000000     
  -2.5533333333333335E-005     0.0000000000000000     
  -2.5333333333333337E-005     0.0000000000000000     
  -2.5133333333333336E-005     0.0000000000000000     
  -2.4933333333333334E-005     0.0000000000000000     
  -2.4733333333333336E-005     0.0000000000000000     
  -2.4533333333333334E-005     0.0000000000000000     
  -2.4333333333333333E-005     0.0000000000000000     
  -2.4133333333333335E-005     0.0000000000000000     
  -2.3933333333333337E-005     0.0000000000000000     
  -2.3733333333333335E-005     0.0000000000000000     
  -2.3533333333333334E-005     0.0000000000000000     
  -2.3333333333333336E-005     0.0000000000000000     
  -2.3133333333333338E-005     0.0000000000000000     
  -2.2933333333333336E-005     0.0000000000000000     
  -2.2733333333333335E-005     0.0000000000000000     
  -2.2533333333333337E-005     0.0000000000000000     
  -2.2333333333333335E-005     0.0000000000000000     
  -2.2133333333333334E-005     0.0000000000000000     
  -2.1933333333333336E-005     0.0000000000000000     
  -2.1733333333333338E-005     0.0000000000000000     
  -2.1533333333333336E-005     0.0000000000000000     
  -2.1333333333333335E-005     0.0000000000000000     
  -2.1133333333333337E-005     0.0000000000000000     
  -2.0933333333333335E-005     0.0000000000000000     
  -2.0733333333333334E-005     0.0000000000000000     
  -2.0533333333333336E-005     0.0000000000000000     
  -2.0333333333333337E-005     0.0000000000000000     
  -2.0133333333333336E-005     0.0000000000000000     
  -1.9933333333333334E-005     0.0000000000000000     
  -1.9733333333333336E-005     0.0000000000000000     
  -1.9533333333333335E-005     0.0000000000000000     
  -1.9333333333333333E-005     0.0000000000000000     
  -1.9133333333333335E-005     0.0000000000000000     
  -1.8933333333333337E-005     0.0000000000000000     
  -1.8733333333333336E-005     0.0000000000000000     
  -1.8533333333333334E-005     0.0000000000000000     
  -1.8333333333333336E-005     0.0000000000000000     
  -1.8133333333333335E-005     0.0000000000000000     
  -1.7933333333333337E-005     0.0000000000000000     
  -1.7733333333333335E-005     0.0000000000000000     
  -1.7533333333333337E-005     0.0000000000000000     
  -1.7333333333333336E-005     0.0000000000000000     
  -1.7133333333333334E-005     0.0000000000000000     
  -1.6933333333333336E-005     0.0000000000000000     
  -1.6733333333333335E-005     0.0000000000000000     
  -1.6533333333333337E-005     0.0000000000000000     
  -1.6333333333333335E-005     0.0000000000000000     
  -1.6133333333333337E-005     0.0000000000000000     
  -1.5933333333333336E-005     0.0000000000000000     
  -1.5733333333333334E-005     0.0000000000000000     
  -1.5533333333333336E-005     0.0000000000000000     
  -1.5333333333333334E-005     0.0000000000000000     
  -1.5133333333333336E-005     0.0000000000000000     
  -1.4933333333333335E-005     0.0000000000000000     
  -1.4733333333333337E-005     0.0000000000000000     
  -1.4533333333333335E-005     0.0000000000000000     
  -1.4333333333333337E-005     0.0000000000000000     
  -1.4133333333333336E-005     0.0000000000000000     
  -1.3933333333333334E-005     0.0000000000000000     
  -1.3733333333333336E-005     0.0000000000000000     
  -1.3533333333333335E-005     0.0000000000000000     
  -1.3333333333333337E-005     0.0000000000000000     
  -1.3133333333333335E-005     0.0000000000000000     
  -1.2933333333333337E-005     0.0000000000000000     
  -1.2733333333333336E-005     0.0000000000000000     
  -1.2533333333333338E-005     0.0000000000000000     
  -1.2333333333333336E-005     0.0000000000000000     
  -1.2133333333333335E-005     0.0000000000000000     
  -1.1933333333333337E-005     0.0000000000000000     
  -1.1733333333333335E-005     0.0000000000000000     
  -1.1533333333333337E-005     0.0000000000000000     
  -1.1333333333333336E-005     0.0000000000000000     
  -1.1133333333333337E-005     0.0000000000000000     
  -1.0933333333333336E-005     0.0000000000000000     
  -1.0733333333333334E-005     0.0000000000000000     
  -1.0533333333333336E-005     0.0000000000000000     
  -1.0333333333333335E-005     0.0000000000000000     
  -1.0133333333333337E-005     0.0000000000000000     
  -9.9333333333333354E-006     0.0000000000000000     
  -9.7333333333333373E-006     3.9614452144915402E-041
  -9.5333333333333358E-006     9.2074311317695502E-041
  -9.3333333333333343E-006     9.2074311317695502E-041
  -9.1333333333333362E-006    -1.8853834070953809E-039
  -8.9333333333333348E-006    -5.3908958827600329E-039
  -8.7333333333333367E-006    -8.5580726021218308E-039
  -8.5333333333333352E-006    -8.3811210902340235E-039
  -8.3333333333333371E-006    -7.5711369448058797E-043
  -8.1333333333333356E-006     2.2283035007167536E-038
  -7.9333333333333376E-006     5.3679541095164826E-038
  -7.7333333333333361E-006     8.2300297084752678E-038
  -7.5333333333333346E-006     9.3090298505308676E-038
  -7.3333333333333365E-006     6.8460430696804400E-038
  -7.1333333333333351E-006    -8.1540224080460155E-039
  -6.9333333333333370E-006    -1.5195742558271648E-037
  -6.7333333333333355E-006    -3.7016241645883471E-037
  -6.5333333333333374E-006    -6.3582255487298071E-037
  -6.3333333333333359E-006    -8.9056924419214676E-037
  -6.1333333333333379E-006    -1.0092621668925304E-036
  -5.9333333333333364E-006    -8.2384313587041765E-037
  -5.7333333333333349E-006    -1.2610935238670716E-037
  -5.5333333333333368E-006     1.2596592274259471E-036
  -5.3333333333333354E-006     3.3813074225039534E-036
  -5.1333333333333373E-006     6.0291166138093035E-036
  -4.9333333333333358E-006     8.6070946652044857E-036
  -4.7333333333333377E-006     1.0031524178751755E-035
  -4.5333333333333362E-006     8.7561927289234267E-036
  -4.3333333333333348E-006     2.9884409011667016E-036
  -4.1333333333333367E-006    -8.8215975438057178E-036
  -3.9333333333333352E-006    -2.7189648612872910E-035
  -3.7333333333333371E-006    -5.0567458702357561E-035
  -3.5333333333333356E-006    -7.4277072725013543E-035
  -3.3333333333333376E-006    -8.9782025719412663E-035
  -3.1333333333333361E-006    -8.4824532853037987E-035
  -2.9333333333333346E-006    -4.5036636839980470E-035
  -2.7333333333333365E-006     4.2456184756297473E-035
  -2.5333333333333384E-006     1.8326273295453565E-034
  -2.3333333333333336E-006     3.6826461736058932E-034
  -2.1333333333333355E-006     5.6589538099501480E-034
  -1.9333333333333374E-006     7.1670349495344508E-034
  -1.7333333333333393E-006     7.3373793486106901E-034
  -1.5333333333333345E-006     5.1273691034066636E-034
  -1.3333333333333364E-006    -4.4536345540089668E-035
  -1.1333333333333383E-006    -9.9269157504327907E-034
  -9.3333333333333343E-007    -2.2938262367929580E-033
  -7.3333333333333535E-007    -3.7661581846502087E-033
  -5.3333333333333726E-007    -5.0456615245749977E-033
  -3.3333333333333918E-007    -5.5820531555135441E-033
  -1.3333333333333432E-007    -4.6930582179292847E-033
   6.6666666666663770E-008    -1.6972166634966260E-033
   2.6666666666666185E-007     3.8670754983538663E-033
   4.6666666666666672E-007     1.1951538243306754E-032
   6.6666666666666480E-007     2.1684502329043658E-032
   8.6666666666666289E-007     3.1118301766528531E-032
   1.0666666666666610E-006     3.7154564010394828E-032
   1.2666666666666658E-006     3.5779765605940162E-032
   1.4666666666666639E-006     2.2726796892470842E-032
   1.6666666666666620E-006    -5.3841293208094490E-033
   1.8666666666666669E-006    -4.9487065760412836E-032
   2.0666666666666649E-006    -1.0631913763704031E-031
   2.2666666666666630E-006    -1.6688966494084767E-031
   2.4666666666666611E-006    -2.1575331283004643E-031
   2.6666666666666660E-006    -2.3176312149591172E-031
   2.8666666666666641E-006    -1.9092232116120920E-031
   3.0666666666666622E-006    -7.1682512555235636E-032
   3.2666666666666602E-006     1.3748500389027436E-031
   3.4666666666666651E-006     4.2917148255004896E-031
   3.6666666666666632E-006     7.6858022277545121E-031
   3.8666666666666613E-006     1.0881981639045099E-030
   4.0666666666666661E-006     1.2887655189578529E-030
   4.2666666666666642E-006     1.2496168964972675E-030
   4.4666666666666623E-006     8.5043843980541419E-031
   4.6666666666666604E-006     4.3716080758092549E-033
   4.8666666666666652E-006    -1.3007888679460487E-030
   5.0666666666666633E-006    -2.9604170670192906E-030
   5.2666666666666614E-006    -4.7208484231243335E-030
   5.4666666666666663E-006    -6.1708242257734649E-030
   5.6666666666666644E-006    -6.7706147463058147E-030
   5.8666666666666624E-006    -5.9295879420008120E-030
   6.0666666666666605E-006    -3.1352981605272582E-030
   6.2666666666666654E-006     1.8749960636543306E-030
   6.4666666666666635E-006     8.9248894808130151E-030
   6.6666666666666616E-006     1.7232106548795840E-029
   6.8666666666666664E-006     2.5318068126755520E-029
   7.0666666666666645E-006     3.1052251703988532E-029
   7.2666666666666626E-006     3.1881900101380655E-029
   7.4666666666666607E-006     2.5273355938655318E-029
   7.6666666666666655E-006     9.3496761505814968E-030
   7.8666666666666636E-006    -1.6346777553096068E-029
   8.0666666666666617E-006    -5.0100068298303643E-029
   8.2666666666666598E-006    -8.7463559308367481E-029
   8.4666666666666647E-006    -1.2112123363064647E-028
   8.6666666666666627E-006    -1.4138099433475927E-028
   8.8666666666666608E-006    -1.3745037363717722E-028
   9.0666666666666657E-006    -9.9521064712179212E-029
   9.2666666666666638E-006    -2.1507075104952266E-029
   9.4666666666666619E-006     9.5936036343878587E-029
   9.6666666666666599E-006     2.4270050967884999E-028
   9.8666666666666648E-006     3.9758096584127988E-028
   1.0066666666666663E-005     5.2850846696686361E-028
   1.0266666666666661E-005     5.9537503256951890E-028
   1.0466666666666666E-005     5.5585228762732882E-028
   1.0666666666666664E-005     3.7409374257692513E-028
   1.0866666666666662E-005     3.1516766717578568E-029
   1.1066666666666660E-005    -4.6192096963864158E-028
   1.1266666666666665E-005    -1.0582744157061960E-027
   1.1466666666666663E-005    -1.6668347097048223E-027
   1.1666666666666661E-005    -2.1569634142811084E-027
   1.1866666666666666E-005    -2.3709742781873620E-027
   1.2066666666666664E-005    -2.1482571102655468E-027
   1.2266666666666662E-005    -1.3598543881373601E-027
   1.2466666666666660E-005     4.9941478274583167E-029
   1.2666666666666665E-005     2.0213573292993556E-027
   1.2866666666666663E-005     4.3454219576501825E-027
   1.3066666666666661E-005     6.6498149463879123E-027
   1.3266666666666666E-005     8.4155463310446222E-027
   1.3466666666666664E-005     9.0334996992742596E-027
   1.3666666666666662E-005     7.9046249087380628E-027
   1.3866666666666660E-005     4.5791819074591283E-027
   1.4066666666666665E-005    -1.0805230936246328E-027
   1.4266666666666663E-005    -8.7415545664410403E-027
   1.4466666666666661E-005    -1.7484452400605125E-026
   1.4666666666666666E-005    -2.5774933843626694E-026
   1.4866666666666664E-005    -3.1566609482977466E-026
   1.5066666666666662E-005    -3.2565428730293748E-026
   1.5266666666666661E-005    -2.6660697309317200E-026
   1.5466666666666665E-005    -1.2489581040311764E-026
   1.5666666666666663E-005     9.9446990658937112E-027
   1.5866666666666662E-005     3.8727322933856471E-026
   1.6066666666666660E-005     6.9720599119046956E-026
   1.6266666666666665E-005     9.6658349637376546E-026
   1.6466666666666663E-005     1.1178812922186979E-025
   1.6666666666666661E-005     1.0712621572883447E-025
   1.6866666666666666E-005     7.6264802914206491E-026
   1.7066666666666664E-005     1.6508528175341414E-026
   1.7266666666666662E-005    -6.9054070980220388E-026
   1.7466666666666660E-005    -1.7007948824398283E-025
   1.7666666666666665E-005    -2.6869545491196343E-025
   1.7866666666666663E-005    -3.4095464486514034E-025
   1.8066666666666661E-005    -3.6031908281304161E-025
   1.8266666666666666E-005    -3.0308554453934637E-025
   1.8466666666666664E-005    -1.5514097547117925E-025
   1.8666666666666662E-005     8.1127490319878392E-026
   1.8866666666666660E-005     3.8142108225391326E-025
   1.9066666666666665E-005     6.9750625326331589E-025
   1.9266666666666663E-005     9.6031183288817601E-025
   1.9466666666666661E-005     1.0892248591909819E-024
   1.9666666666666666E-005     1.0074982806449351E-024
   1.9866666666666664E-005     6.6212525906319575E-025
   2.0066666666666662E-005     4.4837984897932687E-026
   2.0266666666666660E-005    -7.9055592563799753E-025
   2.0466666666666665E-005    -1.7200277481221699E-024
   2.0666666666666663E-005    -2.5555026469195749E-024
   2.0866666666666661E-005    -3.0686658285064215E-024
   2.1066666666666659E-005    -3.0324458486131558E-024
   2.1266666666666664E-005    -2.2758647465041970E-024
   2.1466666666666662E-005    -7.4323178457781142E-025
   2.1666666666666660E-005     1.4553465142353253E-024
   2.1866666666666665E-005     4.0172031352886770E-024
   2.2066666666666663E-005     6.4581301354971750E-024
   2.2266666666666661E-005     8.1703739929486673E-024
   2.2466666666666659E-005     8.5281965927611857E-024
   2.2666666666666664E-005     7.0301993129365512E-024
   2.2866666666666662E-005     3.4553923891741469E-024
   2.3066666666666660E-005    -2.0002532231858361E-024
   2.3266666666666665E-005    -8.6452064717106229E-024
   2.3466666666666663E-005    -1.5307517310025435E-023
   2.3666666666666661E-005    -2.0467383483507903E-023
   2.3866666666666660E-005    -2.2509544967582682E-023
   2.4066666666666664E-005    -2.0069985294589787E-023
   2.4266666666666662E-005    -1.2421867558167297E-023
   2.4466666666666661E-005     1.7896609875945125E-025
   2.4666666666666665E-005     1.6280857033347381E-023
   2.4866666666666663E-005     3.3241169699055649E-023
   2.5066666666666662E-005     4.7506484235150150E-023
   2.5266666666666660E-005     5.5176193465824077E-023
   2.5466666666666665E-005     5.2793603190551415E-023
   2.5666666666666663E-005     3.8241319156092533E-023
   2.5866666666666661E-005     1.1562185372497083E-023
   2.6066666666666666E-005    -2.4500770078767239E-023
   2.6266666666666664E-005    -6.4438462050132829E-023
   2.6466666666666662E-005    -1.0051585267550017E-022
   2.6666666666666660E-005    -1.2394322685732405E-022
   2.6866666666666665E-005    -1.2656622877441872E-022
   2.7066666666666663E-005    -1.0281775355376197E-022
   2.7266666666666661E-005    -5.1555416994444830E-023
   2.7466666666666666E-005     2.2652823450909315E-023
   2.7666666666666664E-005     1.0920838301284982E-022
   2.7866666666666662E-005     1.9241780488133567E-022
   2.8066666666666667E-005     2.5375987548559016E-022
   2.8266666666666658E-005     2.7527980510122486E-022
   2.8466666666666663E-005     2.4361126107424664E-022
   2.8666666666666668E-005     1.5387994235398018E-022
   2.8866666666666659E-005     1.2607450210554990E-023
   2.9066666666666664E-005    -1.6123414750186123E-022
   2.9266666666666669E-005    -3.3764168833060618E-022
   2.9466666666666660E-005    -4.7969114923157797E-022
   2.9666666666666665E-005    -5.5001438945879341E-022
   2.9866666666666656E-005    -5.1873802742835215E-022
   3.0066666666666661E-005    -3.7147613873893986E-022
   3.0266666666666666E-005    -1.1566586441396122E-022
   3.0466666666666657E-005     2.1646133737390604E-022
   3.0666666666666662E-005     5.6960889102970165E-022
   3.0866666666666667E-005     8.7245191815518141E-022
   3.1066666666666658E-005     1.0495802884743040E-021
   3.1266666666666663E-005     1.0368208461458059E-021
   3.1466666666666668E-005     7.9737780750820272E-022
   3.1666666666666659E-005     3.3552628553361210E-022
   3.1866666666666664E-005    -2.9556887236643594E-022
   3.2066666666666656E-005    -9.9481527542910534E-022
   3.2266666666666660E-005    -1.6246024283416133E-021
   3.2466666666666665E-005    -2.0324796794833180E-021
   3.2666666666666657E-005    -2.0807224647207761E-021
   3.2866666666666661E-005    -1.6792332496985383E-021
   3.3066666666666666E-005    -8.1553027022735242E-022
   3.3266666666666658E-005     4.2518526093958685E-022
   3.3466666666666662E-005     1.8563611799576047E-021
   3.3666666666666667E-005     3.2073004464240267E-021
   3.3866666666666659E-005     4.1623281131119260E-021
   3.4066666666666664E-005     4.4186142677884816E-021
   3.4266666666666668E-005     3.7546396382123127E-021
   3.4466666666666660E-005     2.0971718621103797E-021
   3.4666666666666665E-005    -4.2791407329200629E-022
   3.4866666666666656E-005    -3.4756654028539769E-021
   3.5066666666666661E-005    -6.5045488541247639E-021
   3.5266666666666666E-005    -8.8467411237002336E-021
   3.5466666666666657E-005    -9.8225659655869797E-021
   3.5666666666666662E-005    -8.8850853304711082E-021
   3.5866666666666667E-005    -5.7709324113414904E-021
   3.6066666666666658E-005    -6.2629417337602174E-022
   3.6266666666666663E-005     5.9252946207445542E-021
   3.6466666666666668E-005     1.2802256217377624E-020
   3.6666666666666659E-005     1.8588478480409580E-020
   3.6866666666666664E-005     2.1759668931125245E-020
   3.7066666666666669E-005     2.0988465444972408E-020
   3.7266666666666660E-005     1.5481088810453084E-020
   3.7466666666666665E-005     5.2798688120510576E-021
   3.7666666666666656E-005    -8.5426802161083785E-021
   3.7866666666666661E-005    -2.3866992189933841E-020
   3.8066666666666666E-005    -3.7733541154674673E-020
   3.8266666666666657E-005    -4.6782956424576582E-020
   3.8466666666666662E-005    -4.7889423273552405E-020
   3.8666666666666667E-005    -3.8895764094690023E-020
   3.8866666666666658E-005    -1.9314377528016152E-020
   3.9066666666666663E-005     9.1667701149958256E-021
   3.9266666666666668E-005     4.2529443767004390E-020
   3.9466666666666659E-005     7.4738425772342647E-020
   3.9666666666666664E-005     9.8564931558152280E-020
   3.9866666666666655E-005     1.0686119277064167E-019
   4.0066666666666660E-005     9.4115869223126845E-020
   4.0266666666666665E-005     5.8019857820999947E-020
   4.0466666666666656E-005     7.0846016847563489E-022
   4.0666666666666661E-005    -7.0660249028534239E-020
   4.0866666666666666E-005    -1.4426432490373516E-019
   4.1066666666666657E-005    -2.0504795537248442E-019
   4.1266666666666662E-005    -2.3715712956378486E-019
   4.1466666666666667E-005    -2.2708731089553190E-019
   4.1666666666666658E-005    -1.6703543781526382E-019
   4.1866666666666663E-005    -5.7796725141443589E-020
   4.2066666666666668E-005     8.9496410775836408E-020
   4.2266666666666660E-005     2.5340036639290174E-019
   4.2466666666666664E-005     4.0431520293457026E-019
   4.2666666666666656E-005     5.0876398337109272E-019
   4.2866666666666661E-005     5.3535235881536172E-019
   4.3066666666666665E-005     4.6152850090098302E-019
   4.3266666666666657E-005     2.7992926913756899E-019
   4.3466666666666662E-005     2.9464903434206326E-021
   4.3666666666666666E-005    -3.3575006604630927E-019
   4.3866666666666658E-005    -6.8361676675057739E-019
   4.4066666666666663E-005    -9.7582388812880071E-019
   4.4266666666666667E-005    -1.1454902397296245E-018
   4.4466666666666659E-005    -1.1362050533604050E-018
   4.4666666666666664E-005    -9.1478230748459166E-019
   4.4866666666666655E-005    -4.8179348287100181E-019
   4.5066666666666660E-005     1.2255182317104998E-019
   4.5266666666666665E-005     8.1910133696582155E-019
   4.5466666666666656E-005     1.4979788684849420E-018
   4.5666666666666661E-005     2.0339630826081948E-018
   4.5866666666666666E-005     2.3072111608738014E-018
   4.6066666666666657E-005     2.2262000836600623E-018
   4.6266666666666662E-005     1.7488587914330271E-018
   4.6466666666666667E-005     8.9761965474413389E-019
   4.6666666666666658E-005    -2.3533542078817460E-019
   4.6866666666666663E-005    -1.4950006031020693E-018
   4.7066666666666668E-005    -2.6830131386999974E-018
   4.7266666666666659E-005    -3.5876853661895775E-018
   4.7466666666666664E-005    -4.0203398470446474E-018
   4.7666666666666655E-005    -3.8519364670092378E-018
   4.7866666666666660E-005    -3.0431518623668582E-018
   4.8066666666666665E-005    -1.6614696417172520E-018
   4.8266666666666656E-005     1.1946900223529914E-019
   4.8466666666666661E-005     2.0401776781217351E-018
   4.8666666666666666E-005     3.7936789229024578E-018
   4.8866666666666657E-005     5.0766149946085748E-018
   4.9066666666666662E-005     5.6447497104175333E-018
   4.9266666666666667E-005     5.3626903134750238E-018
   4.9466666666666658E-005     4.2376066868881785E-018
   4.9666666666666663E-005     2.4287214922109056E-018
   4.9866666666666655E-005     2.2816332153163352E-019
   5.0066666666666659E-005    -1.9860356776544623E-018
   5.0266666666666664E-005    -3.8183559195463631E-018
   5.0466666666666656E-005    -4.9340970302910390E-018
   5.0666666666666660E-005    -5.1326571637800762E-018
   5.0866666666666665E-005    -4.4000459385437307E-018
   5.1066666666666657E-005    -2.9271558246079235E-018
   5.1266666666666661E-005    -1.0856308312847460E-018
   5.1466666666666666E-005     6.3909401427758926E-019
   5.1666666666666658E-005     1.7490838974506676E-018
   5.1866666666666662E-005     1.8525636256715748E-018
   5.2066666666666667E-005     7.7670343108377232E-019
   5.2266666666666659E-005    -1.3511357777744892E-018
   5.2466666666666664E-005    -4.0769289985676982E-018
   5.2666666666666655E-005    -6.6638470072699157E-018
   5.2866666666666660E-005    -8.2099084813604072E-018
   5.3066666666666665E-005    -7.8279711022991207E-018
   5.3266666666666656E-005    -4.8614406749433091E-018
   5.3466666666666661E-005     9.0335579070761604E-019
   5.3666666666666666E-005     9.0739785061856973E-018
   5.3866666666666657E-005     1.8582510275238247E-017
   5.4066666666666662E-005     2.7744281522724719E-017
   5.4266666666666667E-005     3.4459889482460165E-017
   5.4466666666666658E-005     3.6549958199941816E-017
   5.4666666666666663E-005     3.2183690249171061E-017
   5.4866666666666668E-005     2.0335896549877529E-017
   5.5066666666666659E-005     1.1886149845806539E-018
   5.5266666666666664E-005    -2.3612579764668223E-017
   5.5466666666666655E-005    -5.0927676552083500E-017
   5.5666666666666660E-005    -7.6369648545158878E-017
   5.5866666666666665E-005    -9.4841156707087485E-017
   5.6066666666666656E-005    -1.0131951116479910E-016
   5.6266666666666661E-005    -9.1794732007406205E-017
   5.6466666666666666E-005    -6.4219064223996351E-017
   5.6666666666666657E-005    -1.9297229256148001E-017
   5.6866666666666662E-005     3.9056838614985103E-017
   5.7066666666666667E-005     1.0374301023277011E-016
   5.7266666666666658E-005     1.6506561216948586E-016
   5.7466666666666663E-005     2.1189394576017053E-016
   5.7666666666666654E-005     2.3329537909149158E-016
   5.7866666666666659E-005     2.2044271504069481E-016
   5.8066666666666664E-005     1.6851573303593260E-016
   5.8266666666666655E-005     7.8269427029564456E-017
   5.8466666666666660E-005    -4.3056259787876892E-017
   5.8666666666666665E-005    -1.8175147893989058E-016
   5.8866666666666656E-005    -3.1872829557179194E-016
   5.9066666666666661E-005    -4.3168326461252252E-016
   5.9266666666666666E-005    -4.9814374340011392E-016
   5.9466666666666657E-005    -4.9903457862450013E-016
   5.9666666666666662E-005    -4.2226216775323923E-016
   5.9866666666666667E-005    -2.6573756911439334E-016
   6.0066666666666659E-005    -3.9271085184778930E-017
   6.0266666666666663E-005     2.3511936098725743E-016
   6.0466666666666655E-005     5.2474723226385124E-016
   6.0666666666666660E-005     7.8963875015289522E-016
   6.0866666666666664E-005     9.8745492174988144E-016
   6.1066666666666656E-005     1.0793722328528538E-015
   6.1266666666666661E-005     1.0361269973170270E-015
   6.1466666666666665E-005     8.4332176344831409E-016
   6.1666666666666657E-005     5.0512300389660611E-016
   6.1866666666666662E-005     4.5661397660076573E-017
   6.2066666666666666E-005    -4.9225187361861602E-016
   6.2266666666666658E-005    -1.0510870879913594E-015
   6.2466666666666663E-005    -1.5648122507401439E-015
   6.2666666666666668E-005    -1.9665689278818656E-015
   6.2866666666666659E-005    -2.1967598460341744E-015
   6.3066666666666664E-005    -2.2104120947530344E-015
   6.3266666666666655E-005    -1.9827841830049758E-015
   6.3466666666666660E-005    -1.5124775951765393E-015
   6.3666666666666665E-005    -8.2174276395065004E-016
   6.3866666666666656E-005     4.5839228990045406E-017
   6.4066666666666661E-005     1.0296662771319143E-015
   6.4266666666666666E-005     2.0574641263717385E-015
   6.4466666666666657E-005     3.0506057613445728E-015
   6.4666666666666662E-005     3.9284915003249024E-015
   6.4866666666666667E-005     4.6114620857797068E-015
   6.5066666666666658E-005     5.0222832285984579E-015
   6.5266666666666663E-005     5.0868748861404164E-015
   6.5466666666666654E-005     4.7354884923453437E-015
   6.5666666666666659E-005     3.9058240598248493E-015
   6.5866666666666664E-005     2.5494901698119363E-015
   6.6066666666666655E-005     6.4267806623226402E-016
   6.6266666666666660E-005    -1.7990501457678187E-015
   6.6466666666666665E-005    -4.7032453243594214E-015
   6.6666666666666656E-005    -7.9230866854263980E-015
   6.6866666666666661E-005    -1.1223926417675853E-014
   6.7066666666666666E-005    -1.4278582829974638E-014
   6.7266666666666657E-005    -1.6676065242694411E-014
   6.7466666666666662E-005    -1.7947427656289613E-014
   6.7666666666666667E-005    -1.7610495483527990E-014
   6.7866666666666658E-005    -1.5232230726336766E-014
   6.8066666666666663E-005    -1.0504200441527869E-014
   6.8266666666666655E-005    -3.3229818870264818E-015
   6.8466666666666659E-005     6.1355875652182806E-015
   6.8666666666666664E-005     1.7361356716788036E-014
   6.8866666666666656E-005     2.9487066001502288E-014
   6.9066666666666660E-005     4.1309244251106360E-014
   6.9266666666666665E-005     5.1360016304571040E-014
   6.9466666666666657E-005     5.8031166662313819E-014
   6.9666666666666661E-005     5.9744779721240528E-014
   6.9866666666666666E-005     5.5156794146901127E-014
   7.0066666666666658E-005     4.3373072980445790E-014
   7.0266666666666662E-005     2.4151955288784750E-014
   7.0466666666666654E-005    -1.9350210840475974E-015
   7.0666666666666659E-005    -3.3411784926495222E-014
   7.0866666666666664E-005    -6.7898573330253277E-014
   7.1066666666666655E-005    -1.0221955812848003E-013
   7.1266666666666660E-005    -1.3262042352037784E-013
   7.1466666666666665E-005    -1.5508637566834023E-013
   7.1666666666666656E-005    -1.6573835257397595E-013
   7.1866666666666661E-005    -1.6127260904915657E-013
   7.2066666666666666E-005    -1.3940163086553280E-013
   7.2266666666666657E-005    -9.9248875805926315E-014
   7.2466666666666662E-005    -4.1650926677410020E-014
   7.2666666666666667E-005     3.0673386724773517E-014
   7.2866666666666658E-005     1.1311833338943008E-013
   7.3066666666666663E-005     1.9936681658752293E-013
   7.3266666666666654E-005     2.8174791455288400E-013
   7.3466666666666659E-005     3.5176109462422422E-013
   7.3666666666666664E-005     4.0073684687061435E-013
   7.3866666666666655E-005     4.2059116811722642E-013
   7.4066666666666660E-005     4.0462115175890335E-013
   7.4266666666666665E-005     3.4828444404419745E-013
   7.4466666666666656E-005     2.4990129734276157E-013
   7.4666666666666661E-005     1.1122051975058957E-013
   7.4866666666666666E-005    -6.2207824442706804E-014
   7.5066666666666657E-005    -2.6090275773938752E-013
   7.5266666666666662E-005    -4.7160983290641994E-013
   7.5466666666666653E-005    -6.7777778305124869E-013