  -3.3333333333333335E-005     0.0000000000000000     
  -3.3133333333333337E-005     0.0000000000000000     
  -3.2933333333333332E-005     0.0000000000000000     
  -3.2733333333333334E-005     0.0000000000000000     
  -3.2533333333333336E-005     0.0000000000000000     
  -3.2333333333333338E-005     0.0000000000000000     
  -3.2133333333333333E-005     0.0000000000000000     
  -3.1933333333333335E-005     0.0000000000000000     
  -3.1733333333333337E-005     0.0000000000000000     
  -3.1533333333333332E-005     0.0000000000000000     
  -3.1333333333333334E-005     0.0000000000000000     
  -3.1133333333333336E-005     0.0000000000000000     
  -3.0933333333333338E-005     0.0000000000000000     
  -3.0733333333333333E-005     0.0000000000000000     
  -3.0533333333333335E-005     0.0000000000000000     
  -3.0333333333333337E-005     0.0000000000000000     
  -3.0133333333333335E-005     0.0000000000000000     
  -2.9933333333333334E-005     0.0000000000000000     
  -2.9733333333333336E-005     0.0000000000000000     
  -2.9533333333333334E-005     0.0000000000000000     
  -2.9333333333333336E-005     0.0000000000000000     
  -2.9133333333333334E-005     0.0000000000000000     
  -2.8933333333333336E-005     0.0000000000000000     
  -2.8733333333333335E-005     0.0000000000000000     
  -2.8533333333333333E-005     0.0000000000000000     
  -2.8333333333333335E-005     0.0000000000000000     
  -2.8133333333333337E-005     0.0000000000000000     
  -2.7933333333333336E-005     0.0000000000000000     
  -2.7733333333333334E-005     0.0000000000000000     
  -2.7533333333333336E-005     0.0000000000000000     
  -2.7333333333333335E-005     0.0000000000000000     
  -2.7133333333333333E-005     0.0000000000000000     
  -2.6933333333333335E-005     0.0000000000000000     
  -2.6733333333333337E-005     0.0000000000000000     
  -2.6533333333333336E-005     0.0000000000000000     
  -2.6333333333333334E-005     0.0000000000000000     
  -2.6133333333333336E-005     0.0000000000000000     
  -2.5933333333333335E-005     0.0000000000000000     
  -2.5733333333333333E-005     0.0000000000000000     
  -2.5533333333333335E-005     0.0000000000000000     
  -2.5333333333333337E-005     0.0000000000000000     
  -2.5133333333333336E-005     0.0000000000000000     
  -2.4933333333333334E-005     0.0000000000000000     
  -2.4733333333333336E-005     0.0000000000000000     
  -2.4533333333333334E-005     0.0000000000000000     
  -2.4333333333333333E-005     0.0000000000000000     
  -2.4133333333333335E-005     0.0000000000000000     
  -2.3933333333333337E-005     0.0000000000000000     
  -2.3733333333333335E-005     0.0000000000000000     
  -2.3533333333333334E-005     0.0000000000000000     
  -2.3333333333333336E-005     0.0000000000000000     
  -2.3133333333333338E-005     0.0000000000000000     
  -2.2933333333333336E-005     0.0000000000000000     
  -2.2733333333333335E-005     0.0000000000000000     
  -2.2533333333333337E-005     0.0000000000000000     
  -2.2333333333333335E-005     0.0000000000000000     
  -2.2133333333333334E-005     0.0000000000000000     
  -2.1933333333333336E-005     0.0000000000000000     
  -2.1733333333333338E-005     0.0000000000000000     
  -2.1533333333333336E-005     0.0000000000000000     
  -2.1333333333333335E-005     0.0000000000000000     
  -2.1133333333333337E-005     0.0000000000000000     
  -2.0933333333333335E-005     0.0000000000000000     
  -2.0733333333333334E-005     0.0000000000000000     
  -2.0533333333333336E-005     0.0000000000000000     
  -2.0333333333333337E-005     0.0000000000000000     
  -2.0133333333333336E-005     0.0000000000000000     
  -1.9933333333333334E-005     0.0000000000000000     
  -1.9733333333333336E-005     0.0000000000000000     
  -1.9533333333333335E-005     0.0000000000000000     
  -1.9333333333333333E-005     0.0000000000000000     
  -1.9133333333333335E-005     0.0000000000000000     
  -1.8933333333333337E-005     0.0000000000000000     
  -1.8733333333333336E-005     0.0000000000000000     
  -1.8533333333333334E-005     0.0000000000000000     
  -1.8333333333333336E-005     0.0000000000000000     
  -1.8133333333333335E-005     0.0000000000000000     
  -1.7933333333333337E-005     0.0000000000000000     
  -1.7733333333333335E-005     0.0000000000000000     
  -1.7533333333333337E-005     0.0000000000000000     
  -1.7333333333333336E-005     0.0000000000000000     
  -1.7133333333333334E-005     0.0000000000000000     
  -1.6933333333333336E-005     0.0000000000000000     
  -1.6733333333333335E-005     0.0000000000000000     
  -1.6533333333333337E-005     0.0000000000000000     
  -1.6333333333333335E-005     0.0000000000000000     
  -1.6133333333333337E-005    -5.5674520527802680E-041
  -1.5933333333333336E-005    -1.4962354347696871E-040
  -1.5733333333333334E-005    -3.0333133625521499E-040
  -1.5533333333333336E-005    -5.1699313875962823E-040
  -1.5333333333333334E-005    -7.0118721355988730E-040
  -1.5133333333333336E-005    -1.3254091446922638E-039
  -1.4933333333333335E-005    -1.8215837870663251E-039
  -1.4733333333333337E-005    -1.0147151930844904E-039
  -1.4533333333333335E-005     3.0199942207440895E-039
  -1.4333333333333337E-005     1.0414908533533297E-038
  -1.4133333333333336E-005     2.3807306374512082E-038
  -1.3933333333333334E-005     3.8849224937360244E-038
  -1.3733333333333336E-005     4.9073085578838063E-038
  -1.3533333333333335E-005     3.6967228563337152E-038
  -1.3333333333333337E-005    -1.4694293234905346E-039
  -1.3133333333333335E-005    -7.1957425189427291E-038
  -1.2933333333333337E-005    -1.6410380118374103E-037
  -1.2733333333333336E-005    -2.6894550512223728E-037
  -1.2533333333333338E-005    -3.5463752116864223E-037
  -1.2333333333333336E-005    -3.5952786841019438E-037
  -1.2133333333333335E-005    -2.0748647660806054E-037
  -1.1933333333333337E-005     1.8785553736891654E-037
  -1.1733333333333335E-005     8.8846922588950062E-037
  -1.1533333333333337E-005     1.8849778504539950E-036
  -1.1333333333333336E-005     3.0248207846522197E-036
  -1.1133333333333337E-005     3.9554790094103170E-036
  -1.0933333333333336E-005     4.0946905257005386E-036
  -1.0733333333333334E-005     2.6704485703471149E-036
  -1.0533333333333336E-005    -1.1228176408634381E-036
  -1.0333333333333335E-005    -7.8161940160910011E-036
  -1.0133333333333337E-005    -1.7228290573911300E-035
  -9.9333333333333354E-006    -2.7947324830141846E-035
  -9.7333333333333373E-006    -3.6889363599718609E-035
  -9.5333333333333358E-006    -3.9164559520232002E-035
  -9.3333333333333343E-006    -2.8540162181553269E-035
  -9.1333333333333362E-006     1.2283472780021751E-036
  -8.9333333333333348E-006     5.4062161622268177E-035
  -8.7333333333333367E-006     1.2836906720261004E-034
  -8.5333333333333352E-006     2.1357519194677190E-034
  -8.3333333333333371E-006     2.8746059245717112E-034
  -8.1333333333333356E-006     3.1582461736378483E-034
  -7.9333333333333376E-006     2.5618314022458396E-034
  -7.7333333333333361E-006     6.6869634029331200E-035
  -7.5333333333333346E-006    -2.7812219244803003E-034
  -7.3333333333333365E-006    -7.7001942352274856E-034
  -7.1333333333333351E-006    -1.3457285555598988E-033
  -6.9333333333333370E-006    -1.8741997106346904E-033
  -6.7333333333333355E-006    -2.1567657354892521E-033
  -6.5333333333333374E-006    -1.9495092506549342E-033
  -6.3333333333333359E-006    -1.0129778297816533E-033
  -6.1333333333333379E-006     8.1140532594056366E-034
  -5.9333333333333364E-006     3.5077631102328153E-033
  -5.7333333333333349E-006     6.7948062538236245E-033
  -5.5333333333333368E-006     1.0066188368958390E-032
  -5.3333333333333354E-006     1.2394844918849621E-032
  -5.1333333333333373E-006     1.2629520148050579E-032
  -4.9333333333333358E-006     9.5966622017441616E-033
  -4.7333333333333377E-006     2.3959334171832383E-033
  -4.5333333333333362E-006    -9.2528587260191280E-033
  -4.3333333333333348E-006    -2.4681403289080383E-032
  -4.1333333333333367E-006    -4.2048066344087000E-032
  -3.9333333333333352E-006    -5.8294680184778763E-032
  -3.7333333333333371E-006    -6.9331050298871864E-032
  -3.5333333333333356E-006    -7.0442130580122448E-032
  -3.3333333333333376E-006    -5.6861097724584726E-032
  -3.1333333333333361E-006    -2.4425290621318692E-032
  -2.9333333333333346E-006     2.9741997210742971E-032
  -2.7333333333333365E-006     1.0649021686842076E-031
  -2.5333333333333384E-006     2.0367137081603199E-031
  -2.3333333333333336E-006     3.1465523764896813E-031
  -2.1333333333333355E-006     4.2605276788525021E-031
  -1.9333333333333374E-006     5.1463524201836100E-031
  -1.7333333333333393E-006     5.4405538840480376E-031
  -1.5333333333333345E-006     4.6294678814296001E-031
  -1.3333333333333364E-006     2.0711443018903829E-031
  -1.1333333333333383E-006    -2.9059363339181638E-031
  -9.3333333333333343E-007    -1.0791769834938840E-030
  -7.3333333333333535E-007    -2.1552981108208655E-030
  -5.3333333333333726E-007    -3.4181943823041046E-030
  -3.3333333333333918E-007    -4.6223124533036728E-030
  -1.3333333333333432E-007    -5.3443412478229977E-030
   6.6666666666663770E-008    -4.9889695440129671E-030
   2.6666666666666185E-007    -2.8615465319642675E-030
   4.6666666666666672E-007     1.6682933850432541E-030
   6.6666666666666480E-007     8.9041245514365346E-030
   8.6666666666666289E-007     1.8483813908105953E-029
   1.0666666666666610E-006     2.9029712352000897E-029
   1.2666666666666658E-006     3.7901833466373652E-029
   1.4666666666666639E-006     4.1207846864895208E-029
   1.6666666666666620E-006     3.4235669251175095E-029
   1.8666666666666669E-006     1.2436740436373142E-029
   2.0666666666666649E-006    -2.7016600156283329E-029
   2.2666666666666630E-006    -8.3252870395461352E-029
   2.4666666666666611E-006    -1.4968724155578332E-028
   2.6666666666666660E-006    -2.1259751443854907E-028
   2.8666666666666641E-006    -2.5109334252901938E-028
   3.0666666666666622E-006    -2.3929950331660231E-028
   3.2666666666666602E-006    -1.5133727129089800E-028
   3.4666666666666651E-006     3.0865108774990419E-029
   3.6666666666666632E-006     3.0777002424956930E-028
   3.8666666666666613E-006     6.5234480251142102E-028
   4.0666666666666661E-006     1.0030504188370794E-027
   4.2666666666666642E-006     1.2633468505423833E-027
   4.4666666666666623E-006     1.3112760183627015E-027
   4.6666666666666604E-006     1.0214781630781393E-027
   4.8666666666666652E-006     2.9946873434820700E-028
   5.0666666666666633E-006    -8.7572959859310301E-028
   5.2666666666666614E-006    -2.4088920424810838E-027
   5.4666666666666663E-006    -4.0581775591690645E-027
   5.6666666666666644E-006    -5.4316637064148694E-027
   5.8666666666666624E-006    -6.0246181864420761E-027
   6.0666666666666605E-006    -5.3059551061819046E-027
   6.2666666666666654E-006    -2.8521167256670983E-027
   6.4666666666666635E-006     1.4877400524165936E-027
   6.6666666666666616E-006     7.4274495196934658E-027
   6.8666666666666664E-006     1.4126627309072400E-026
   7.0666666666666645E-006     2.0173585448978488E-026
   7.2666666666666626E-006     2.3716204771465867E-026
   7.4666666666666607E-006     2.2767600804335094E-026
   7.6666666666666655E-006     1.5676185322561476E-026
   7.8666666666666636E-006     1.6999312290554043E-027
   8.0666666666666617E-006    -1.8428488046046848E-026
   8.2666666666666598E-006    -4.2102062782517576E-026
   8.4666666666666647E-006    -6.4778337519636699E-026
   8.6666666666666627E-006    -8.0405212088021428E-026
   8.8666666666666608E-006    -8.2406942117336209E-026
   9.0666666666666657E-006    -6.5179546850784563E-026
   9.2666666666666638E-006    -2.5888107164670412E-026
   9.4666666666666619E-006     3.3799940323477048E-026
   9.6666666666666599E-006     1.0652801144010820E-025
   9.8666666666666648E-006     1.7911961092686616E-025
   1.0066666666666663E-005     2.3391087298052186E-025
   1.0266666666666661E-005     2.5170448388240653E-025
   1.0466666666666666E-005     2.1612208908104662E-025
   1.0666666666666664E-005     1.1868146641861459E-025
   1.0866666666666662E-005    -3.6499886681542799E-026
   1.1066666666666660E-005    -2.2974090272270461E-025
   1.1266666666666665E-005    -4.2592565720945381E-025
   1.1466666666666663E-005    -5.7869037043905013E-025
   1.1666666666666661E-005    -6.3885388801513035E-025
   1.1866666666666666E-005    -5.6618878028066910E-025
   1.2066666666666664E-005    -3.4243413386402130E-025
   1.2266666666666662E-005     1.7558933544710069E-026
   1.2466666666666660E-005     4.6013706504210742E-025
   1.2666666666666665E-005     8.9584112487721690E-025
   1.2866666666666663E-005     1.2129557796796945E-024
   1.3066666666666661E-005     1.3011523393266401E-024
   1.3266666666666666E-005     1.0818275785946415E-024
   1.3466666666666664E-005     5.3880049587122768E-025
   1.3666666666666662E-005    -2.5907775503443427E-025
   1.3866666666666660E-005    -1.1522702783827383E-024
   1.4066666666666665E-005    -1.9087968593040807E-024
   1.4266666666666663E-005    -2.2688166969643695E-024
   1.4466666666666661E-005    -2.0113581032899721E-024
   1.4666666666666666E-005    -1.0313981229050708E-024
   1.4866666666666664E-005     5.9126710325589905E-025
   1.5066666666666662E-005     2.5536793029414857E-024
   1.5266666666666661E-005     4.3429437333904362E-024
   1.5466666666666665E-005     5.3145213921594576E-024
   1.5666666666666663E-005     4.8353148352855099E-024
   1.5866666666666662E-005     2.4731144377403450E-024
   1.6066666666666660E-005    -1.8049933829516093E-024
   1.6266666666666665E-005    -7.4774648557078565E-024
   1.6466666666666663E-005    -1.3413902351805963E-023
   1.6666666666666661E-005    -1.7970339804649227E-023
   1.6866666666666666E-005    -1.9258507893037235E-023
   1.7066666666666664E-005    -1.5574496838147052E-023
   1.7266666666666662E-005    -5.9249923203347883E-024
   1.7466666666666660E-005     9.4562205026547712E-024
   1.7666666666666665E-005     2.8740140631096861E-023
   1.7866666666666663E-005     4.8425947150953660E-023
   1.8066666666666661E-005     6.3667832395176317E-023
   1.8266666666666666E-005     6.9047697916133142E-023
   1.8466666666666664E-005     5.9735423276870642E-023
   1.8666666666666662E-005     3.2863621225614621E-023
   1.8866666666666660E-005    -1.1160565363014098E-023
   1.9066666666666665E-005    -6.7746979893879286E-023
   1.9266666666666663E-005    -1.2795377842568422E-022
   1.9466666666666661E-005    -1.7930621458768675E-022
   1.9666666666666666E-005    -2.0767679468882796E-022
   1.9866666666666664E-005    -2.0006370259044634E-022
   2.0066666666666662E-005    -1.4784610737093474E-022
   2.0266666666666660E-005    -4.9875193243938336E-023
   2.0466666666666665E-005     8.5361002596659297E-023
   2.0666666666666663E-005     2.3922451880054821E-022
   2.0866666666666661E-005     3.8457408771576745E-022
   2.1066666666666659E-005     4.8969058579509602E-022
   2.1266666666666664E-005     5.2409264579928902E-022
   2.1466666666666662E-005     4.6533034058494313E-022
   2.1666666666666660E-005     3.0542161159639508E-022
   2.1866666666666665E-005     5.5404253382185347E-023
   2.2066666666666663E-005    -2.5339623694752609E-022
   2.2266666666666661E-005    -5.7229055452195002E-022
   2.2466666666666659E-005    -8.4245523958977294E-022
   2.2666666666666664E-005    -1.0055943325598936E-021
   2.2866666666666662E-005    -1.0162044456744400E-021
   2.3066666666666660E-005    -8.5291688537400087E-022
   2.3266666666666665E-005    -5.2617060893577541E-022
   2.3466666666666663E-005    -7.9876966844790837E-023
   2.3666666666666661E-005     4.1421862633434208E-022
   2.3866666666666660E-005     8.6922879984053640E-022
   2.4066666666666664E-005     1.2008697516452087E-021
   2.4266666666666662E-005     1.3466987759062957E-021
   2.4466666666666661E-005     1.2823347087934618E-021
   2.4666666666666665E-005     1.0301722130216133E-021
   2.4866666666666663E-005     6.5725532261348898E-022
   2.5066666666666662E-005     2.6117664389982872E-022
   2.5266666666666660E-005    -5.4231128864627265E-023
   2.5466666666666665E-005    -2.0868476653338016E-022
   2.5666666666666663E-005    -1.7364812070373588E-022
   2.5866666666666661E-005     9.0352080972084264E-024
   2.6066666666666666E-005     2.2516746060870805E-022
   2.6266666666666664E-005     3.0703739754403042E-022
   2.6466666666666662E-005     7.2644789413733309E-023
   2.6666666666666660E-005    -6.2046968339859521E-022
   2.6866666666666665E-005    -1.8176421819484894E-021
   2.7066666666666663E-005    -3.4199282222065298E-021
   2.7266666666666661E-005    -5.1621395568384450E-021
   2.7466666666666666E-005    -6.6278747693794968E-021
   2.7666666666666664E-005    -7.3070638757683655E-021
   2.7866666666666662E-005    -6.6925222121428349E-021
   2.8066666666666667E-005    -4.4021940495666058E-021
   2.8266666666666658E-005    -3.0499338254167740E-022
   2.8466666666666663E-005     5.3772391040704373E-021
   2.8666666666666668E-005     1.2019459344940077E-020
   2.8866666666666659E-005     1.8616987858403255E-020
   2.9066666666666664E-005     2.3893513314103008E-020
   2.9266666666666669E-005     2.6488775355060435E-020
   2.9466666666666660E-005     2.5203858552264021E-020
   2.9666666666666665E-005     1.9266785383323789E-020
   2.9866666666666656E-005     8.5708654865599815E-021
   3.0066666666666661E-005    -6.1641138939653653E-021
   3.0266666666666666E-005    -2.3351401312096713E-020
   3.0466666666666657E-005    -4.0645430958747838E-020
   3.0666666666666662E-005    -5.5203826421109736E-020
   3.0866666666666667E-005    -6.4082687694930435E-020
   3.1066666666666658E-005    -6.4718758599009762E-020
   3.1266666666666663E-005    -5.5430569767269545E-020
   3.1466666666666668E-005    -3.5858978785515782E-020
   3.1666666666666659E-005    -7.2649285294607614E-021
   3.1866666666666664E-005     2.7387242515096398E-020
   3.2066666666666656E-005     6.3610509209344660E-020
   3.2266666666666660E-005     9.5857478154567655E-020
   3.2466666666666665E-005     1.1824371657648758E-019
   3.2666666666666657E-005     1.2546674435291185E-019
   3.2866666666666661E-005     1.1381469332665171E-019
   3.3066666666666666E-005     8.2121309189089850E-020
   3.3266666666666658E-005     3.2497977051906493E-020
   3.3466666666666662E-005    -2.9331480712795483E-020
   3.3666666666666667E-005    -9.4251384483413430E-020
   3.3866666666666659E-005    -1.5063709322965979E-019
   3.4066666666666664E-005    -1.8592398024090964E-019
   3.4266666666666668E-005    -1.8877299530661898E-019
   3.4466666666666660E-005    -1.5160315251484807E-019
   3.4666666666666665E-005    -7.3123420811725683E-020
   3.4866666666666656E-005     3.9625931159077800E-020
   3.5066666666666661E-005     1.7027095999767987E-019
   3.5266666666666666E-005     2.9366819342863729E-019
   3.5466666666666657E-005     3.7842131020256986E-019
   3.5666666666666662E-005     3.9147140145592476E-019
   3.5866666666666667E-005     3.0450477007918466E-019
   3.6066666666666658E-005     1.0146905562653127E-019
   3.6266666666666663E-005    -2.1396142610546990E-019
   3.6466666666666668E-005    -6.1249929642208940E-019
   3.6666666666666659E-005    -1.0366212172994586E-018
   3.6866666666666664E-005    -1.4027856048793756E-018
   3.7066666666666669E-005    -1.6095860214894133E-018
   3.7266666666666660E-005    -1.5520988239483869E-018
   3.7466666666666665E-005    -1.1415564166670357E-018
   3.7666666666666656E-005    -3.2816893881986171E-019
   3.7866666666666661E-005     8.7632676678417762E-019
   3.8066666666666666E-005     2.3807627134744961E-018
   3.8266666666666657E-005     4.0060394775254553E-018
   3.8466666666666662E-005     5.4903772786161870E-018
   3.8666666666666667E-005     6.5113492123732619E-018
   3.8866666666666658E-005     6.7255011803465988E-018
   3.9066666666666663E-005     5.8233982201008627E-018
   3.9266666666666668E-005     3.5946149550497547E-018
   3.9466666666666659E-005    -6.0103491453480180E-021
   3.9666666666666664E-005    -4.8020150754798137E-018
   3.9866666666666655E-005    -1.0361158583128923E-017
   4.0066666666666660E-005    -1.5995100066264438E-017
   4.0266666666666665E-005    -2.0801756076243659E-017
   4.0466666666666656E-005    -2.3754234532114831E-017
   4.0666666666666661E-005    -2.3833538409244933E-017
   4.0866666666666666E-005    -2.0194459600260411E-017
   4.1066666666666657E-005    -1.2346211520361131E-017
   4.1266666666666662E-005    -3.2274755996695936E-019
   4.1466666666666667E-005     1.5186475631248644E-017
   4.1666666666666658E-005     3.2774979119226739E-017
   4.1866666666666663E-005     5.0352761942942725E-017
   4.2066666666666668E-005     6.5291723529497878E-017
   4.2266666666666660E-005     7.4686817820346336E-017
   4.2466666666666664E-005     7.5720096393095222E-017
   4.2666666666666656E-005     6.6096849219121188E-017
   4.2866666666666661E-005     4.4505671431101446E-017
   4.3066666666666665E-005     1.1040637862024699E-017
   4.3266666666666657E-005    -3.2483887457167715E-017
   4.3466666666666662E-005    -8.2394234801278883E-017
   4.3666666666666666E-005    -1.3325188725136574E-016
   4.3866666666666658E-005    -1.7821769926748803E-016
   4.4066666666666663E-005    -2.0969152827797734E-016
   4.4266666666666667E-005    -2.2019579921697462E-016
   4.4466666666666659E-005    -2.0343088388390332E-016
   4.4666666666666664E-005    -1.5539237406885868E-016
   4.4866666666666655E-005    -7.5410080329048835E-017
   4.5066666666666660E-005     3.3048172301878926E-017
   4.5266666666666665E-005     1.6196344155289108E-016
   4.5466666666666656E-005     2.9887607230713263E-016
   4.5666666666666661E-005     4.2760738665122653E-016
   4.5866666666666666E-005     5.2961668220547210E-016
   4.6066666666666657E-005     5.8593734629849502E-016
   4.6266666666666662E-005     5.7955027933738698E-016
   4.6466666666666667E-005     4.9796998217255911E-016
   4.6666666666666658E-005     3.3575079647307743E-016
   4.6866666666666663E-005     9.6577667968404168E-017
   4.7066666666666668E-005    -2.0540056659786150E-016
   4.7266666666666659E-005    -5.4530200572971965E-016
   4.7466666666666664E-005    -8.8853581525783801E-016
   4.7666666666666655E-005    -1.1932257365340850E-015
   4.7866666666666660E-005    -1.4139882277445629E-015
   4.8066666666666665E-005    -1.5068453010267136E-015
   4.8266666666666656E-005    -1.4348774850896525E-015
   4.8466666666666661E-005    -1.1740670322512843E-015
   4.8666666666666666E-005    -7.1866035410187403E-016
   4.8866666666666657E-005    -8.5325339474108046E-017
   4.9066666666666662E-005     6.8461080126446086E-016
   4.9266666666666667E-005     1.5254510572420653E-015
   4.9466666666666658E-005     2.3503720578164567E-015
   4.9666666666666663E-005     3.0577758894675853E-015
   4.9866666666666655E-005     3.5405746228129713E-015
   5.0066666666666659E-005     3.6978654449734875E-015
   5.0266666666666664E-005     3.4480727999920944E-015
   5.0466666666666656E-005     2.7422983116665711E-015
   5.0666666666666660E-005     1.5763546345396792E-015
   5.0866666666666665E-005    -1.7814048911454237E-019
   5.1066666666666657E-005    -1.8795141831069473E-015
   5.1266666666666661E-005    -3.8972596387080642E-015
   5.1466666666666666E-005    -5.8410477156703702E-015
   5.1666666666666658E-005    -7.4665671764652057E-015
   5.1866666666666662E-005    -8.5205553558932302E-015
   5.2066666666666667E-005    -8.7693864257808596E-015
   5.2266666666666659E-005    -8.0309216990299753E-015
   5.2466666666666664E-005    -6.2064409696158221E-015
   5.2666666666666655E-005    -3.3087509189448013E-015
   5.2866666666666660E-005     5.1773407553734827E-016
   5.3066666666666665E-005     4.9890576134958319E-015
   5.3266666666666656E-005     9.6893820648838443E-015
   5.3466666666666661E-005     1.4096455377994588E-014
   5.3666666666666666E-005     1.7625293392958490E-014
   5.3866666666666657E-005     1.9688257112662673E-014
   5.4066666666666662E-005     1.9767226468347756E-014
   5.4266666666666667E-005     1.7491120706667269E-014
   5.4466666666666658E-005     1.2709970038156144E-014
   5.4666666666666663E-005     5.5553502887742251E-015
   5.4866666666666668E-005    -3.5232213003348725E-015
   5.5066666666666659E-005    -1.3755322231900203E-014
   5.5266666666666664E-005    -2.4086975720107111E-014
   5.5466666666666655E-005    -3.3261233967970872E-014
   5.5666666666666660E-005    -3.9939849971571977E-014
   5.5866666666666665E-005    -4.2858060060520931E-014
   5.6066666666666656E-005    -4.0998625521903499E-014
   5.6266666666666661E-005    -3.3766108597137032E-014
   5.6466666666666666E-005    -2.1138827037943331E-014
   5.6666666666666657E-005    -3.7745507165193663E-015
   5.6866666666666662E-005     1.6952245460161432E-014
   5.7066666666666667E-005     3.8998821120942344E-014
   5.7266666666666658E-005     5.9797529945388874E-014
   5.7466666666666663E-005     7.6492528633696948E-014
   5.7666666666666654E-005     8.6255705174982210E-014
   5.7866666666666659E-005     8.6654998368295186E-014
   5.8066666666666664E-005     7.6036767987676514E-014
   5.8266666666666655E-005     5.3875154615519552E-014
   5.8466666666666660E-005     2.1037672472487735E-014
   5.8666666666666665E-005    -2.0081658804885850E-014
   5.8866666666666656E-005    -6.5601935063782551E-014
   5.9066666666666661E-005    -1.1039248571740871E-013
   5.9266666666666666E-005    -1.4851138727370389E-013
   5.9466666666666657E-005    -1.7382441706016375E-013
   5.9666666666666662E-005    -1.8075678898819848E-013
   5.9866666666666667E-005    -1.6510557818397533E-013
   6.0066666666666659E-005    -1.2482066279045899E-013
   6.0266666666666663E-005    -6.0650630133289951E-014
   6.0466666666666655E-005     2.3450720821894550E-014
   6.0666666666666660E-005     1.2024923590399467E-013
   6.0866666666666664E-005     2.1955356331432907E-013
   6.1066666666666656E-005     3.0896522088698003E-013
   6.1266666666666661E-005     3.7503751146369679E-013
   6.1466666666666665E-005     4.0477143564752596E-013
   6.1666666666666657E-005     3.8732440060253092E-013
   6.1866666666666662E-005     3.1575998393437406E-013
   6.2066666666666666E-005     1.8863304375903814E-013
   6.2266666666666658E-005     1.1188805632454913E-014
   6.2466666666666663E-005    -2.0403698050293689E-013
   6.2666666666666668E-005    -4.3739548569837927E-013
   6.2866666666666659E-005    -6.6319653919607666E-013
   6.3066666666666664E-005    -8.5170642753217895E-013
   6.3266666666666655E-005    -9.7199804525468796E-013
   6.3466666666666660E-005    -9.9546856042234523E-013
   6.3666666666666665E-005    -8.9972596900046583E-013
   6.3866666666666656E-005    -6.7245265239581509E-013
   6.4066666666666661E-005    -3.1478601524722220E-013
   6.4266666666666666E-005     1.5626846895838731E-013
   6.4466666666666657E-005     7.0684903942459969E-013
   6.4666666666666662E-005     1.2870477212245788E-012
   6.4866666666666667E-005     1.8337476433492007E-012
   6.5066666666666658E-005     2.2755257090211724E-012
   6.5266666666666663E-005     2.5394211125456645E-012
   6.5466666666666654E-005     2.5591248388433333E-012
   6.5666666666666659E-005     2.2838999871928765E-012
   6.5866666666666664E-005     1.6873354498720129E-012
   6.6066666666666655E-005     7.7490286508327677E-013
   6.6266666666666660E-005    -4.1076501396912005E-013
   6.6466666666666665E-005    -1.7878759461991908E-012
   6.6666666666666656E-005    -3.2375655146674323E-012
   6.6866666666666661E-005    -4.6105489389135844E-012
   6.7066666666666666E-005    -5.7383771307249457E-012
   6.7266666666666657E-005    -6.4488281770929453E-012
   6.7466666666666662E-005    -6.5844143607210284E-012
   6.7666666666666667E-005    -6.0224645389258893E-012
   6.7866666666666658E-005    -4.6948138607223397E-012
   6.8066666666666663E-005    -2.6048460258647271E-012
   6.8266666666666655E-005     1.6043557145959503E-013
   6.8466666666666659E-005     3.4254540303838432E-012
   6.8666666666666664E-005     6.9299281021935871E-012
   6.8866666666666656E-005     1.0342569334253454E-011
   6.9066666666666660E-005     1.3284692973425291E-011
   6.9266666666666665E-005     1.5362753285213121E-011
   6.9466666666666657E-005     1.6207712279314706E-011
   6.9666666666666661E-005     1.5518070573049027E-011
   6.9866666666666666E-005     1.3102541825185946E-011
   7.0066666666666658E-005     8.9177957444235447E-012
   7.0266666666666662E-005     3.0965334525037629E-012
   7.0466666666666654E-005    -4.0384952588648578E-012
   7.0666666666666659E-005    -1.1978047416257470E-011
   7.0866666666666664E-005    -2.0049728173974694E-011
   7.1066666666666655E-005    -2.7461546476244409E-011
   7.1266666666666660E-005    -3.3364096400534037E-011
   7.1466666666666665E-005    -3.6927641753990467E-011
   7.1666666666666656E-005    -3.7428360108971782E-011
   7.1866666666666661E-005    -3.4336265237092663E-011
   7.2066666666666666E-005    -2.7396281740812031E-011
   7.2266666666666657E-005    -1.6693349529502270E-011
   7.2466666666666662E-005    -2.6930131168878577E-012
   7.2666666666666667E-005     1.3749812454540701E-011
   7.2866666666666658E-005     3.1418935427851946E-011
   7.3066666666666663E-005     4.8803947830182644E-011
   7.3266666666666654E-005     6.4204764581406866E-011
   7.3466666666666659E-005     7.5868399465013196E-011
   7.3666666666666664E-005     8.2148872861231273E-011
   7.3866666666666655E-005     8.1678002509397796E-011
   7.4066666666666660E-005     7.3532122474297674E-011
   7.4266666666666665E-005     5.7378425942811830E-011
   7.4466666666666656E-005     3.3584678857136417E-011
   7.4666666666666661E-005     3.2774638118978237E-012
   7.4866666666666666E-005    -3.1662788398223692E-011
   7.5066666666666657E-005    -6.8677260393523135E-011
   7.5266666666666662E-005    -1.0467620270207721E-010
   7.5466666666666653E-005    -1.3625354469363439E-010