  -3.3333333333333335E-005     0.0000000000000000     
  -3.3133333333333337E-005     0.0000000000000000     
  -3.2933333333333332E-005     0.0000000000000000     
  -3.2733333333333334E-005     0.0000000000000000     
  -3.2533333333333336E-005     0.0000000000000000     
  -3.2333333333333338E-005     0.0000000000000000     
  -3.2133333333333333E-005     0.0000000000000000     
  -3.1933333333333335E-005     0.0000000000000000     
  -3.1733333333333337E-005     0.0000000000000000     
  -3.1533333333333332E-005     0.0000000000000000     
  -3.1333333333333334E-005     0.0000000000000000     
  -3.1133333333333336E-005     0.0000000000000000     
  -3.0933333333333338E-005     0.0000000000000000     
  -3.0733333333333333E-005     0.0000000000000000     
  -3.0533333333333335E-005     0.0000000000000000     
  -3.0333333333333337E-005     0.0000000000000000     
  -3.0133333333333335E-005     0.0000000000000000     
  -2.9933333333333334E-005     0.0000000000000000     
  -2.9733333333333336E-005     0.0000000000000000     
  -2.9533333333333334E-005     0.0000000000000000     
  -2.9333333333333336E-005     0.0000000000000000     
  -2.9133333333333334E-005     0.0000000000000000     
  -2.8933333333333336E-005     0.0000000000000000     
  -2.8733333333333335E-005     0.0000000000000000     
  -2.8533333333333333E-005     0.0000000000000000     
  -2.8333333333333335E-005     0.0000000000000000     
  -2.8133333333333337E-005     0.0000000000000000     
  -2.7933333333333336E-005     0.0000000000000000     
  -2.7733333333333334E-005     0.0000000000000000     
  -2.7533333333333336E-005     0.0000000000000000     
  -2.7333333333333335E-005     0.0000000000000000     
  -2.7133333333333333E-005     0.0000000000000000     
  -2.6933333333333335E-005     0.0000000000000000     
  -2.6733333333333337E-005     0.0000000000000000     
  -2.6533333333333336E-005     0.0000000000000000     
  -2.6333333333333334E-005     0.0000000000000000     
  -2.6133333333333336E-005     0.0000000000000000     
  -2.5933333333333335E-005     0.0000000000000000     
  -2.5733333333333333E-005     0.0000000000000000     
  -2.5533333333333335E-005     0.0000000000000000     
  -2.5333333333333337E-005     0.0000000000000000     
  -2.5133333333333336E-005     0.0000000000000000     
  -2.4933333333333334E-005     0.0000000000000000     
  -2.4733333333333336E-005     0.0000000000000000     
  -2.4533333333333334E-005     0.0000000000000000     
  -2.4333333333333333E-005     0.0000000000000000     
  -2.4133333333333335E-005     0.0000000000000000     
  -2.3933333333333337E-005     0.0000000000000000     
  -2.3733333333333335E-005     0.0000000000000000     
  -2.3533333333333334E-005     0.0000000000000000     
  -2.3333333333333336E-005     0.0000000000000000     
  -2.3133333333333338E-005     0.0000000000000000     
  -2.2933333333333336E-005     0.0000000000000000     
  -2.2733333333333335E-005     0.0000000000000000     
  -2.2533333333333337E-005     0.0000000000000000     
  -2.2333333333333335E-005     0.0000000000000000     
  -2.2133333333333334E-005     0.0000000000000000     
  -2.1933333333333336E-005     0.0000000000000000     
  -2.1733333333333338E-005     0.0000000000000000     
  -2.1533333333333336E-005     0.0000000000000000     
  -2.1333333333333335E-005     0.0000000000000000     
  -2.1133333333333337E-005     0.0000000000000000     
  -2.0933333333333335E-005     0.0000000000000000     
  -2.0733333333333334E-005     0.0000000000000000     
  -2.0533333333333336E-005     0.0000000000000000     
  -2.0333333333333337E-005     0.0000000000000000     
  -2.0133333333333336E-005     0.0000000000000000     
  -1.9933333333333334E-005     0.0000000000000000     
  -1.9733333333333336E-005     0.0000000000000000     
  -1.9533333333333335E-005     0.0000000000000000     
  -1.9333333333333333E-005     0.0000000000000000     
  -1.9133333333333335E-005     0.0000000000000000     
  -1.8933333333333337E-005     0.0000000000000000     
  -1.8733333333333336E-005     0.0000000000000000     
  -1.8533333333333334E-005     0.0000000000000000     
  -1.8333333333333336E-005     0.0000000000000000     
  -1.8133333333333335E-005     0.0000000000000000     
  -1.7933333333333337E-005     0.0000000000000000     
  -1.7733333333333335E-005     0.0000000000000000     
  -1.7533333333333337E-005     0.0000000000000000     
  -1.7333333333333336E-005     0.0000000000000000     
  -1.7133333333333334E-005     0.0000000000000000     
  -1.6933333333333336E-005     0.0000000000000000     
  -1.6733333333333335E-005     0.0000000000000000     
  -1.6533333333333337E-005     0.0000000000000000     
  -1.6333333333333335E-005     0.0000000000000000     
  -1.6133333333333337E-005     0.0000000000000000     
  -1.5933333333333336E-005     0.0000000000000000     
  -1.5733333333333334E-005     0.0000000000000000     
  -1.5533333333333336E-005     0.0000000000000000     
  -1.5333333333333334E-005     0.0000000000000000     
  -1.5133333333333336E-005     0.0000000000000000     
  -1.4933333333333335E-005     0.0000000000000000     
  -1.4733333333333337E-005     0.0000000000000000     
  -1.4533333333333335E-005     0.0000000000000000     
  -1.4333333333333337E-005     0.0000000000000000     
  -1.4133333333333336E-005     0.0000000000000000     
  -1.3933333333333334E-005     0.0000000000000000     
  -1.3733333333333336E-005     0.0000000000000000     
  -1.3533333333333335E-005     0.0000000000000000     
  -1.3333333333333337E-005     0.0000000000000000     
  -1.3133333333333335E-005     0.0000000000000000     
  -1.2933333333333337E-005     0.0000000000000000     
  -1.2733333333333336E-005     0.0000000000000000     
  -1.2533333333333338E-005     0.0000000000000000     
  -1.2333333333333336E-005     0.0000000000000000     
  -1.2133333333333335E-005     0.0000000000000000     
  -1.1933333333333337E-005     0.0000000000000000     
  -1.1733333333333335E-005     0.0000000000000000     
  -1.1533333333333337E-005     0.0000000000000000     
  -1.1333333333333336E-005     0.0000000000000000     
  -1.1133333333333337E-005     0.0000000000000000     
  -1.0933333333333336E-005     0.0000000000000000     
  -1.0733333333333334E-005     0.0000000000000000     
  -1.0533333333333336E-005     0.0000000000000000     
  -1.0333333333333335E-005     0.0000000000000000     
  -1.0133333333333337E-005     0.0000000000000000     
  -9.9333333333333354E-006     0.0000000000000000     
  -9.7333333333333373E-006     0.0000000000000000     
  -9.5333333333333358E-006     0.0000000000000000     
  -9.3333333333333343E-006     0.0000000000000000     
  -9.1333333333333362E-006     0.0000000000000000     
  -8.9333333333333348E-006     0.0000000000000000     
  -8.7333333333333367E-006     0.0000000000000000     
  -8.5333333333333352E-006     0.0000000000000000     
  -8.3333333333333371E-006     0.0000000000000000     
  -8.1333333333333356E-006     0.0000000000000000     
  -7.9333333333333376E-006     0.0000000000000000     
  -7.7333333333333361E-006     0.0000000000000000     
  -7.5333333333333346E-006     0.0000000000000000     
  -7.3333333333333365E-006     0.0000000000000000     
  -7.1333333333333351E-006     0.0000000000000000     
  -6.9333333333333370E-006     0.0000000000000000     
  -6.7333333333333355E-006     0.0000000000000000     
  -6.5333333333333374E-006     0.0000000000000000     
  -6.3333333333333359E-006     0.0000000000000000     
  -6.1333333333333379E-006     0.0000000000000000     
  -5.9333333333333364E-006     0.0000000000000000     
  -5.7333333333333349E-006     0.0000000000000000     
  -5.5333333333333368E-006     0.0000000000000000     
  -5.3333333333333354E-006     0.0000000000000000     
  -5.1333333333333373E-006     0.0000000000000000     
  -4.9333333333333358E-006     0.0000000000000000     
  -4.7333333333333377E-006     0.0000000000000000     
  -4.5333333333333362E-006     0.0000000000000000     
  -4.3333333333333348E-006     0.0000000000000000     
  -4.1333333333333367E-006     0.0000000000000000     
  -3.9333333333333352E-006     0.0000000000000000     
  -3.7333333333333371E-006     0.0000000000000000     
  -3.5333333333333356E-006     0.0000000000000000     
  -3.3333333333333376E-006     0.0000000000000000     
  -3.1333333333333361E-006     0.0000000000000000     
  -2.9333333333333346E-006     0.0000000000000000     
  -2.7333333333333365E-006     0.0000000000000000     
  -2.5333333333333384E-006     0.0000000000000000     
  -2.3333333333333336E-006     0.0000000000000000     
  -2.1333333333333355E-006     0.0000000000000000     
  -1.9333333333333374E-006     0.0000000000000000     
  -1.7333333333333393E-006     0.0000000000000000     
  -1.5333333333333345E-006     0.0000000000000000     
  -1.3333333333333364E-006     0.0000000000000000     
  -1.1333333333333383E-006     0.0000000000000000     
  -9.3333333333333343E-007     0.0000000000000000     
  -7.3333333333333535E-007     0.0000000000000000     
  -5.3333333333333726E-007     0.0000000000000000     
  -3.3333333333333918E-007     0.0000000000000000     
  -1.3333333333333432E-007     0.0000000000000000     
   6.6666666666663770E-008    -2.1505922364489401E-040
   2.6666666666666185E-007    -4.5499223380134033E-040
   4.6666666666666672E-007    -2.9826639637017179E-040
   6.6666666666666480E-007    -2.0168272573722229E-039
   8.6666666666666289E-007    -3.5350477834085243E-039
   1.0666666666666610E-006    -2.1939340705545811E-039
   1.2666666666666658E-006     4.0300520237773820E-039
   1.4666666666666639E-006     1.3304175856434478E-038
   1.6666666666666620E-006     2.2575542769120375E-038
   1.8666666666666669E-006     2.7471752725391127E-038
   2.0666666666666649E-006     1.5155144704475359E-038
   2.2666666666666630E-006    -2.8483533537813369E-038
   2.4666666666666611E-006    -9.2508443845541920E-038
   2.6666666666666660E-006    -1.7446545026302714E-037
   2.8666666666666641E-006    -2.4317930501796795E-037
   3.0666666666666622E-006    -2.6234146977604876E-037
   3.2666666666666602E-006    -1.9565561934599717E-037
   3.4666666666666651E-006    -4.1903453608326347E-038
   3.6666666666666632E-006     2.1752415386001708E-037
   3.8666666666666613E-006     5.7504222792360780E-037
   4.0666666666666661E-006     9.7719339661120377E-037
   4.2666666666666642E-006     1.3379890534471325E-036
   4.4666666666666623E-006     1.5221462906385651E-036
   4.6666666666666604E-006     1.3686590974089075E-036
   4.8666666666666652E-006     7.0112593131047530E-037
   5.0666666666666633E-006    -5.8749974711099975E-037
   5.2666666666666614E-006    -2.4824750295120739E-036
   5.4666666666666663E-006    -4.7877995600706146E-036
   5.6666666666666644E-006    -7.0581889024730357E-036
   5.8666666666666624E-006    -8.5981478578643382E-036
   6.0666666666666605E-006    -8.5238330193993736E-036
   6.2666666666666654E-006    -5.9189604731793257E-036
   6.4666666666666635E-006    -8.8025514896533631E-038
   6.6666666666666616E-006     9.1153387482184581E-036
   6.8666666666666664E-006     2.0938791970121326E-035
   7.0666666666666645E-006     3.3457370411066955E-035
   7.2666666666666626E-006     4.3488273714164446E-035
   7.4666666666666607E-006     4.6826090203142123E-035
   7.6666666666666655E-006     3.8897351007051733E-035
   7.8666666666666636E-006     1.5866219587324339E-035
   8.0666666666666617E-006    -2.3890792542967459E-035
   8.2666666666666598E-006    -7.8171502119605270E-035
   8.4666666666666647E-006    -1.3958476481306119E-034
   8.6666666666666627E-006    -1.9495097848631162E-034
   8.8666666666666608E-006    -2.2602192901971271E-034
   9.0666666666666657E-006    -2.1197888859945975E-034
   9.2666666666666638E-006    -1.3389426356330434E-034
   9.4666666666666619E-006     1.9120815665472939E-035
   9.6666666666666599E-006     2.4296859205788884E-034
   9.8666666666666648E-006     5.1235774069703853E-034
   1.0066666666666663E-005     7.7741551142602325E-034
   1.0266666666666661E-005     9.6540935618974043E-034
   1.0466666666666666E-005     9.8954039636763109E-034
   1.0666666666666664E-005     7.6574027037376819E-034
   1.0866666666666662E-005     2.3662786819515329E-034
   1.1066666666666660E-005    -6.0058931969120178E-034
   1.1266666666666665E-005    -1.6680604914300667E-033
   1.1466666666666663E-005    -2.7910430358812487E-033
   1.1666666666666661E-005    -3.7003749082094919E-033
   1.1866666666666666E-005    -4.0615182871259156E-033
   1.2066666666666664E-005    -3.5343070932472349E-033
   1.2266666666666662E-005    -1.8610089665121899E-033
   1.2466666666666660E-005     1.0284801116044752E-033
   1.2666666666666665E-005     4.9151266494999959E-033
   1.2866666666666663E-005     9.2219349934676240E-033
   1.3066666666666661E-005     1.3010665186081683E-032
   1.3266666666666666E-005     1.5073510080713241E-032
   1.3466666666666664E-005     1.4136170924708242E-032
   1.3666666666666662E-005     9.1657647701738686E-033
   1.3866666666666660E-005    -2.5412423279915392E-034
   1.4066666666666665E-005    -1.3553004727870330E-032
   1.4266666666666663E-005    -2.8908440002820223E-032
   1.4466666666666661E-005    -4.3201082940773861E-032
   1.4666666666666666E-005    -5.2293177202103808E-032
   1.4866666666666664E-005    -5.1690063541060591E-032
   1.5066666666666662E-005    -3.7566592900881854E-032
   1.5266666666666661E-005    -8.0357487190385811E-033
   1.5466666666666665E-005     3.5576606971049454E-032
   1.5666666666666663E-005     8.7782773794976466E-032
   1.5866666666666662E-005     1.3868720188925949E-031
   1.6066666666666660E-005     1.7478311273055851E-031
   1.6266666666666665E-005     1.8099030784165312E-031
   1.6466666666666663E-005     1.4388444402943207E-031
   1.6666666666666661E-005     5.5740683525337329E-032
   1.6866666666666666E-005    -8.1337638457246998E-032
   1.7066666666666664E-005    -2.5222400934816779E-031
   1.7266666666666662E-005    -4.2765800425217143E-031
   1.7466666666666660E-005    -5.6624896410079215E-031
   1.7666666666666665E-005    -6.2019889200298385E-031
   1.7866666666666663E-005    -5.4462262351199954E-031
   1.8066666666666661E-005    -3.0940291865508063E-031
   1.8266666666666666E-005     8.8460913332002357E-032
   1.8466666666666664E-005     6.1483498113359327E-031
   1.8666666666666662E-005     1.1939053155308677E-030
   1.8866666666666660E-005     1.7118846872027162E-030
   1.9066666666666665E-005     2.0305945192488325E-030
   1.9266666666666663E-005     2.0106647909488224E-030
   1.9466666666666661E-005     1.5417662960827971E-030
   1.9666666666666666E-005     5.7499180538023221E-031
   1.9866666666666664E-005    -8.4919086452894896E-031
   2.0066666666666662E-005    -2.5844877498942278E-030
   2.0266666666666660E-005    -4.3798352828778833E-030
   2.0466666666666665E-005    -5.9012742682277857E-030
   2.0666666666666663E-005    -6.7740441006690692E-030
   2.0866666666666661E-005    -6.6399835959159778E-030
   2.1066666666666659E-005    -5.2217461346769505E-030
   2.1266666666666664E-005    -2.3835891067712693E-030
   2.1466666666666662E-005     1.8206915044248191E-030
   2.1666666666666660E-005     7.1187700849364988E-030
   2.1866666666666665E-005     1.3010926348834506E-029
   2.2066666666666663E-005     1.8777967564917129E-029
   2.2266666666666661E-005     2.3500801387124113E-029
   2.2466666666666659E-005     2.6089659766706038E-029
   2.2666666666666664E-005     2.5329581389809984E-029
   2.2866666666666662E-005     1.9961676813826609E-029
   2.3066666666666660E-005     8.8321237243013730E-030
   2.3266666666666665E-005    -8.8540416043869993E-030
   2.3466666666666663E-005    -3.3147736509311520E-029
   2.3666666666666661E-005    -6.2845894795342312E-029
   2.3866666666666660E-005    -9.4921536564506845E-029
   2.4066666666666664E-005    -1.2403577265155078E-028
   2.4266666666666662E-005    -1.4235354007486346E-028
   2.4466666666666661E-005    -1.3994010202189247E-028
   2.4666666666666665E-005    -1.0601145984946614E-028
   2.4866666666666663E-005    -3.1216085689501396E-029
   2.5066666666666662E-005     8.9085912761487362E-029
   2.5266666666666660E-005     2.5090230548888573E-028
   2.5466666666666665E-005     4.3779778316874119E-028
   2.5666666666666663E-005     6.1832855239324431E-028
   2.5866666666666661E-005     7.4611451912256203E-028
   2.6066666666666666E-005     7.6392655235861589E-028
   2.6266666666666664E-005     6.1275175327011679E-028
   2.6466666666666662E-005     2.4591082093465144E-028
   2.6666666666666660E-005    -3.5304026538975420E-028
   2.6866666666666665E-005    -1.1515202311043490E-027
   2.7066666666666663E-005    -2.0527447210358825E-027
   2.7266666666666661E-005    -2.8897859478293118E-027
   2.7466666666666666E-005    -3.4346327995206131E-027
   2.7666666666666664E-005    -3.4266923633909682E-027
   2.7866666666666662E-005    -2.6221091767779177E-027
   2.8066666666666667E-005    -8.6055888245942872E-028
   2.8266666666666658E-005     1.8596979904375270E-027
   2.8466666666666663E-005     5.3136622308867080E-027
   2.8666666666666668E-005     9.0080523188492123E-027
   2.8866666666666659E-005     1.2187520022998047E-026
   2.9066666666666664E-005     1.3906481079438885E-026
   2.9266666666666669E-005     1.3175412376281491E-026
   2.9466666666666660E-005     9.1758041224583047E-027
   2.9666666666666665E-005     1.5190328013930914E-027
   2.9866666666666656E-005    -9.4955619964480218E-027
   3.0066666666666661E-005    -2.2684837778789326E-026
   3.0266666666666666E-005    -3.5917716477829082E-026
   3.0466666666666657E-005    -4.6246671931342004E-026
   3.0666666666666662E-005    -5.0275947266214013E-026
   3.0866666666666667E-005    -4.4767012956699287E-026
   3.1066666666666658E-005    -2.7426731305383811E-026
   3.1266666666666663E-005     2.2376549864246132E-027
   3.1466666666666668E-005     4.2168135523634292E-026
   3.1666666666666659E-005     8.7316448330195455E-026
   3.1866666666666664E-005     1.2972090071641899E-025
   3.2066666666666656E-005     1.5925680282119465E-025
   3.2266666666666660E-005     1.6511815929591409E-025
   3.2466666666666665E-005     1.3794379280873188E-025
   3.2666666666666657E-005     7.2329066915003467E-026
   3.2866666666666661E-005    -3.0703448714881685E-026
   3.3066666666666666E-005    -1.6182698777898203E-025
   3.3266666666666658E-005    -3.0272255875814115E-025
   3.3466666666666662E-005    -4.2709983034018328E-025
   3.3666666666666667E-005    -5.0373637829804157E-025
   3.3866666666666659E-005    -5.0150173196777358E-025
   3.4066666666666664E-005    -3.9589947802128934E-025
   3.4266666666666668E-005    -1.7619831266105616E-025
   3.4466666666666660E-005     1.4817275833400933E-025
   3.4666666666666665E-005     5.4351566581608871E-025
   3.4866666666666656E-005     9.5155638180314273E-025
   3.5066666666666661E-005     1.2940888944329843E-024
   3.5266666666666666E-005     1.4830165963305978E-024
   3.5466666666666657E-005     1.4352486465348375E-024
   3.5666666666666662E-005     1.0907711141479108E-024
   3.5866666666666667E-005     4.3111388980632929E-025
   3.6066666666666658E-005    -5.0538030110966358E-025
   3.6266666666666663E-005    -1.6153811687827282E-024
   3.6466666666666668E-005    -2.7329846206218954E-024
   3.6666666666666659E-005    -3.6450041781473337E-024
   3.6866666666666664E-005    -4.1194815743516099E-024
   3.7066666666666669E-005    -3.9452614773326653E-024
   3.7266666666666660E-005    -2.9777945660159582E-024
   3.7466666666666665E-005    -1.1839610713434595E-024
   3.7666666666666656E-005     1.3228469453133225E-024
   3.7866666666666661E-005     4.2663882214032206E-024
   3.8066666666666666E-005     7.2175749711025081E-024
   3.8266666666666657E-005     9.6352569806950097E-024
   3.8466666666666662E-005     1.0937568540520236E-023
   3.8666666666666667E-005     1.0597936043587773E-023
   3.8866666666666658E-005     8.2540523740780185E-024
   3.9066666666666663E-005     3.8131684182431218E-024
   3.9266666666666668E-005    -2.4659469267010879E-024
   3.9466666666666659E-005    -9.9341593294635581E-024
   3.9666666666666664E-005    -1.7572758504182829E-023
   3.9866666666666655E-005    -2.4083528377876567E-023
   4.0066666666666660E-005    -2.8047909319884926E-023
   4.0266666666666665E-005    -2.8143207754572312E-023
   4.0466666666666656E-005    -2.3391716700915716E-023
   4.0666666666666661E-005    -1.3408033364672219E-023
   4.0866666666666666E-005     1.3970159837993794E-024
   4.1066666666666657E-005     1.9699001694784871E-023
   4.1266666666666662E-005     3.9267111028448377E-023
   4.1466666666666667E-005     5.7121994078836852E-023
   4.1666666666666658E-005     6.9851669380604257E-023
   4.1866666666666663E-005     7.4069700528058147E-023
   4.2066666666666668E-005     6.6974232590528388E-023
   4.2266666666666660E-005     4.6941963586556131E-023
   4.2466666666666664E-005     1.4071510533033818E-023
   4.2666666666666656E-005    -2.9420428991500216E-023
   4.2866666666666661E-005    -7.9045853303107859E-023
   4.3066666666666665E-005    -1.2821569673669501E-022
   4.3266666666666657E-005    -1.6878355761692761E-022
   4.3466666666666662E-005    -1.9196786613772048E-022
   4.3666666666666666E-005    -1.8960126175203599E-022
   4.3866666666666658E-005    -1.5559289009707077E-022
   4.4066666666666663E-005    -8.7428408344939978E-023
   4.4266666666666667E-005     1.2518425000941333E-023
   4.4466666666666659E-005     1.3611803070826035E-022
   4.4666666666666664E-005     2.6931443640023119E-022
   4.4866666666666655E-005     3.9286316140481140E-022
   4.5066666666666660E-005     4.8410059108660062E-022
   4.5266666666666665E-005     5.1973667610033592E-022
   4.5466666666666656E-005     4.7949304535397409E-022
   4.5666666666666661E-005     3.5022180188998359E-022
   4.5866666666666666E-005     1.2995738542674173E-022
   4.6066666666666657E-005    -1.6878910925527079E-022
   4.6266666666666662E-005    -5.1725111806260550E-022
   4.6466666666666667E-005    -8.7086027907700962E-022
   4.6666666666666658E-005    -1.1724721333540795E-021
   4.6866666666666663E-005    -1.3585811507073556E-021
   4.7066666666666668E-005    -1.3682886600338438E-021
   4.7266666666666659E-005    -1.1542454179375886E-021
   4.7466666666666664E-005    -6.9422821032285559E-022
   4.7666666666666655E-005    -1.5282713704898011E-024
   4.7866666666666660E-005     8.6796805943365915E-022
   4.8066666666666665E-005     1.8141282958494956E-021
   4.8266666666666656E-005     2.6980944952346898E-021
   4.8466666666666661E-005     3.3559286664258270E-021
   4.8666666666666666E-005     3.6201510466319286E-021
   4.8866666666666657E-005     3.3474814283831599E-021
   4.9066666666666662E-005     2.4495461550474464E-021
   4.9266666666666667E-005     9.2193622010013499E-022
   4.9466666666666658E-005    -1.1339066474210078E-021
   4.9666666666666663E-005    -3.5016480478735079E-021
   4.9866666666666655E-005    -5.8587026191297809E-021
   5.0066666666666659E-005    -7.8054774106371578E-021
   5.0266666666666664E-005    -8.9152059070411599E-021
   5.0466666666666656E-005    -8.8006974022748542E-021
   5.0666666666666660E-005    -7.1904144375617078E-021
   5.0866666666666665E-005    -4.0027767994564642E-021
   5.1066666666666657E-005     5.9476681994577769E-022
   5.1266666666666661E-005     6.1558947551971763E-021
   5.1466666666666666E-005     1.1966907948830000E-020
   5.1666666666666658E-005     1.7107237287105668E-020
   5.1866666666666662E-005     2.0559706344559221E-020
   5.2066666666666667E-005     2.1362729247517104E-020
   5.2266666666666659E-005     1.8787429405273072E-020
   5.2466666666666664E-005     1.2514381003691774E-020
   5.2666666666666655E-005     2.7791823094497071E-021
   5.2866666666666660E-005    -9.5453674031054211E-021
   5.3066666666666665E-005    -2.2958616645872916E-020
   5.3266666666666656E-005    -3.5451233223440995E-020
   5.3466666666666661E-005    -4.4737183777096072E-020
   5.3666666666666666E-005    -4.8582577871987004E-020
   5.3866666666666657E-005    -4.5195170663641836E-020
   5.4066666666666662E-005    -3.3620254671962903E-020
   5.4266666666666667E-005    -1.4076343817630229E-020
   5.4466666666666658E-005     1.1839196327409026E-020
   5.4666666666666663E-005     4.1136238351043392E-020
   5.4866666666666668E-005     6.9650731283321191E-020
   5.5066666666666659E-005     9.2505714605225187E-020
   5.5266666666666664E-005     1.0478436115966103E-019
   5.5466666666666655E-005     1.0234282577256328E-019
   5.5666666666666660E-005     8.2652986364503687E-020
   5.5866666666666665E-005     4.5539058398629269E-020
   5.6066666666666656E-005    -6.3359584574279100E-021
   5.6266666666666661E-005    -6.7362959816467843E-020
   5.6466666666666666E-005    -1.2934782530705382E-019
   5.6666666666666657E-005    -1.8236841037713162E-019
   5.6866666666666662E-005    -2.1607712211862463E-019
   5.7066666666666667E-005    -2.2131562632864515E-019
   5.7266666666666658E-005    -1.9183230030882467E-019
   5.7466666666666663E-005    -1.2583882679450236E-019
   5.7666666666666654E-005    -2.7122076507951149E-020
   5.7866666666666659E-005     9.4549508332993060E-020
   5.8066666666666664E-005     2.2391605397992284E-019
   5.8266666666666655E-005     3.4169084725189644E-019
   5.8466666666666660E-005     4.2693275777332579E-019
   5.8666666666666665E-005     4.6010216523960823E-019
   5.8866666666666656E-005     4.2642772546873882E-019
   5.9066666666666661E-005     3.1909909406212455E-019
   5.9266666666666666E-005     1.4174817930928429E-019
   5.9466666666666657E-005    -9.0295014498524806E-020
   5.9666666666666662E-005    -3.5037580486935520E-019
   5.9866666666666667E-005    -6.0273179014347688E-019
   6.0066666666666659E-005    -8.0651154066396551E-019
   6.0266666666666663E-005    -9.2126645358025988E-019
   6.0466666666666655E-005    -9.1330501384700205E-019
   6.0666666666666660E-005    -7.6206761632158960E-019
   6.0866666666666664E-005    -4.6554244443088919E-019
   6.1066666666666656E-005    -4.3737143233848720E-020
   6.1266666666666661E-005     4.6063961711701562E-019
   6.1466666666666665E-005     9.8483939592633259E-019
   6.1666666666666657E-005     1.4522120548203931E-018
   6.1866666666666662E-005     1.7814524892475973E-018
   6.2066666666666666E-005     1.8980645238412751E-018
   6.2266666666666658E-005     1.7466852407147882E-018
   6.2466666666666663E-005     1.3025752939972664E-018
   6.2666666666666668E-005     5.8044647842825788E-019
   6.2866666666666659E-005    -3.6108725612508297E-019
   6.3066666666666664E-005    -1.4207708056679822E-018
   6.3266666666666655E-005    -2.4623887075303140E-018
   6.3466666666666660E-005    -3.3287472453553637E-018
   6.3666666666666665E-005    -3.8609220830092154E-018
   6.3866666666666656E-005    -3.9208311795076743E-018
   6.4066666666666661E-005    -3.4144360633306319E-018
   6.4266666666666666E-005    -2.3123965562927486E-018
   6.4466666666666657E-005    -6.6490804347651049E-019
   6.4666666666666662E-005     1.3922041647358809E-018
   6.4866666666666667E-005     3.6422599414488028E-018
   6.5066666666666658E-005     5.8042980979123172E-018
   6.5266666666666663E-005     7.5608917576022712E-018
   6.5466666666666654E-005     8.5950704073978751E-018
   6.5666666666666659E-005     8.6327043112404386E-018
   6.5866666666666664E-005     7.4855285098057089E-018
   6.6066666666666655E-005     5.0893097060316031E-018
   6.6266666666666660E-005     1.5316215235190308E-018
   6.6466666666666665E-005    -2.9356076481062046E-018
   6.6666666666666656E-005    -7.9022028429741872E-018
   6.6866666666666661E-005    -1.2826020225011203E-017
   6.7066666666666666E-005    -1.7078518052772031E-017
   6.7266666666666657E-005    -2.0006449594482353E-017
   6.7466666666666662E-005    -2.1004249998141722E-017
   6.7666666666666667E-005    -1.9590143751955361E-017
   6.7866666666666658E-005    -1.5478076881514425E-017
   6.8066666666666663E-005    -8.6375918854907924E-018
   6.8266666666666655E-005     6.6532182201893887E-019
   6.8466666666666659E-005     1.1851734671686676E-017
   6.8666666666666664E-005     2.4040962073547558E-017
   6.8866666666666656E-005     3.6090262624214827E-017
   6.9066666666666660E-005     4.6661953401796392E-017
   6.9266666666666665E-005     5.4315081670199776E-017
   6.9466666666666657E-005     5.7617619467112536E-017
   6.9666666666666661E-005     5.5274711458569559E-017
   6.9866666666666666E-005     4.6268035798821785E-017
   7.0066666666666658E-005     3.0001143296430961E-017
   7.0266666666666662E-005     6.4445764064407210E-018
   7.0466666666666654E-005    -2.3727322842431017E-017
   7.0666666666666659E-005    -5.9019233315765991E-017
   7.0866666666666664E-005    -9.7032940161952179E-017
   7.1066666666666655E-005    -1.3444154235747513E-016
   7.1266666666666660E-005    -1.6704490167880601E-016
   7.1466666666666665E-005    -1.8993439544044723E-016
   7.1666666666666656E-005    -1.9779370561034773E-016
   7.1866666666666661E-005    -1.8535554603599748E-016
   7.2066666666666666E-005    -1.4802022700998783E-016
   7.2266666666666657E-005    -8.2619878228551229E-017
   7.2466666666666662E-005     1.1717210649232962E-017
   7.2666666666666667E-005     1.3268220687045795E-016
   7.2866666666666658E-005     2.7399755003138548E-016
   7.3066666666666663E-005     4.2487203046482457E-016
   7.3266666666666654E-005     5.6986692465573774E-016
   7.3466666666666659E-005     6.8934118163454283E-016
   7.3666666666666664E-005     7.6061814160226284E-016
   7.3866666666666655E-005     7.5996129836506091E-016
   7.4066666666666660E-005     6.6535476904407855E-016
   7.4266666666666665E-005     4.5996723144821941E-016
   7.4466666666666656E-005     1.3603500587254337E-016
   7.4666666666666661E-005    -3.0124607077128620E-016
   7.4866666666666666E-005    -8.3036484739951240E-016
   7.5066666666666657E-005    -1.4113147260467456E-015
   7.5266666666666662E-005    -1.9852632295435632E-015
   7.5466666666666653E-005    -2.4766854222583333E-015