  -3.3333333333333335E-005     0.0000000000000000     
  -3.3133333333333337E-005     0.0000000000000000     
  -3.2933333333333332E-005     0.0000000000000000     
  -3.2733333333333334E-005     0.0000000000000000     
  -3.2533333333333336E-005     0.0000000000000000     
  -3.2333333333333338E-005     0.0000000000000000     
  -3.2133333333333333E-005     0.0000000000000000     
  -3.1933333333333335E-005     0.0000000000000000     
  -3.1733333333333337E-005     0.0000000000000000     
  -3.1533333333333332E-005     0.0000000000000000     
  -3.1333333333333334E-005     0.0000000000000000     
  -3.1133333333333336E-005     0.0000000000000000     
  -3.0933333333333338E-005     0.0000000000000000     
  -3.0733333333333333E-005     0.0000000000000000     
  -3.0533333333333335E-005     0.0000000000000000     
  -3.0333333333333337E-005     0.0000000000000000     
  -3.0133333333333335E-005     0.0000000000000000     
  -2.9933333333333334E-005     0.0000000000000000     
  -2.9733333333333336E-005     0.0000000000000000     
  -2.9533333333333334E-005     0.0000000000000000     
  -2.9333333333333336E-005     0.0000000000000000     
  -2.9133333333333334E-005     0.0000000000000000     
  -2.8933333333333336E-005     0.0000000000000000     
  -2.8733333333333335E-005     0.0000000000000000     
  -2.8533333333333333E-005     0.0000000000000000     
  -2.8333333333333335E-005     0.0000000000000000     
  -2.8133333333333337E-005     0.0000000000000000     
  -2.7933333333333336E-005     0.0000000000000000     
  -2.7733333333333334E-005     0.0000000000000000     
  -2.7533333333333336E-005     0.0000000000000000     
  -2.7333333333333335E-005     0.0000000000000000     
  -2.7133333333333333E-005     0.0000000000000000     
  -2.6933333333333335E-005     0.0000000000000000     
  -2.6733333333333337E-005     0.0000000000000000     
  -2.6533333333333336E-005     0.0000000000000000     
  -2.6333333333333334E-005     0.0000000000000000     
  -2.6133333333333336E-005     0.0000000000000000     
  -2.5933333333333335E-005     0.0000000000000000     
  -2.5733333333333333E-005     0.0000000000000000     
  -2.5533333333333335E-005     0.0000000000000000     
  -2.5333333333333337E-005     0.0000000000000000     
  -2.5133333333333336E-005     0.0000000000000000     
  -2.4933333333333334E-005     0.0000000000000000     
  -2.4733333333333336E-005     0.0000000000000000     
  -2.4533333333333334E-005     0.0000000000000000     
  -2.4333333333333333E-005     0.0000000000000000     
  -2.4133333333333335E-005     0.0000000000000000     
  -2.3933333333333337E-005     0.0000000000000000     
  -2.3733333333333335E-005     0.0000000000000000     
  -2.3533333333333334E-005     0.0000000000000000     
  -2.3333333333333336E-005     0.0000000000000000     
  -2.3133333333333338E-005     0.0000000000000000     
  -2.2933333333333336E-005     0.0000000000000000     
  -2.2733333333333335E-005     0.0000000000000000     
  -2.2533333333333337E-005     0.0000000000000000     
  -2.2333333333333335E-005     0.0000000000000000     
  -2.2133333333333334E-005     0.0000000000000000     
  -2.1933333333333336E-005     0.0000000000000000     
  -2.1733333333333338E-005     0.0000000000000000     
  -2.1533333333333336E-005     0.0000000000000000     
  -2.1333333333333335E-005     0.0000000000000000     
  -2.1133333333333337E-005     0.0000000000000000     
  -2.0933333333333335E-005     0.0000000000000000     
  -2.0733333333333334E-005     0.0000000000000000     
  -2.0533333333333336E-005     0.0000000000000000     
  -2.0333333333333337E-005     0.0000000000000000     
  -2.0133333333333336E-005     0.0000000000000000     
  -1.9933333333333334E-005     0.0000000000000000     
  -1.9733333333333336E-005     0.0000000000000000     
  -1.9533333333333335E-005     0.0000000000000000     
  -1.9333333333333333E-005     0.0000000000000000     
  -1.9133333333333335E-005     0.0000000000000000     
  -1.8933333333333337E-005     0.0000000000000000     
  -1.8733333333333336E-005     0.0000000000000000     
  -1.8533333333333334E-005     0.0000000000000000     
  -1.8333333333333336E-005     0.0000000000000000     
  -1.8133333333333335E-005     0.0000000000000000     
  -1.7933333333333337E-005     0.0000000000000000     
  -1.7733333333333335E-005     0.0000000000000000     
  -1.7533333333333337E-005     0.0000000000000000     
  -1.7333333333333336E-005     0.0000000000000000     
  -1.7133333333333334E-005     0.0000000000000000     
  -1.6933333333333336E-005     0.0000000000000000     
  -1.6733333333333335E-005     0.0000000000000000     
  -1.6533333333333337E-005     0.0000000000000000     
  -1.6333333333333335E-005     0.0000000000000000     
  -1.6133333333333337E-005     0.0000000000000000     
  -1.5933333333333336E-005     0.0000000000000000     
  -1.5733333333333334E-005     0.0000000000000000     
  -1.5533333333333336E-005     0.0000000000000000     
  -1.5333333333333334E-005     0.0000000000000000     
  -1.5133333333333336E-005     0.0000000000000000     
  -1.4933333333333335E-005     0.0000000000000000     
  -1.4733333333333337E-005     0.0000000000000000     
  -1.4533333333333335E-005     0.0000000000000000     
  -1.4333333333333337E-005     0.0000000000000000     
  -1.4133333333333336E-005     0.0000000000000000     
  -1.3933333333333334E-005     0.0000000000000000     
  -1.3733333333333336E-005     0.0000000000000000     
  -1.3533333333333335E-005     0.0000000000000000     
  -1.3333333333333337E-005     0.0000000000000000     
  -1.3133333333333335E-005     0.0000000000000000     
  -1.2933333333333337E-005     0.0000000000000000     
  -1.2733333333333336E-005     0.0000000000000000     
  -1.2533333333333338E-005     0.0000000000000000     
  -1.2333333333333336E-005     0.0000000000000000     
  -1.2133333333333335E-005     0.0000000000000000     
  -1.1933333333333337E-005     0.0000000000000000     
  -1.1733333333333335E-005     0.0000000000000000     
  -1.1533333333333337E-005     0.0000000000000000     
  -1.1333333333333336E-005     0.0000000000000000     
  -1.1133333333333337E-005     0.0000000000000000     
  -1.0933333333333336E-005     0.0000000000000000     
  -1.0733333333333334E-005     0.0000000000000000     
  -1.0533333333333336E-005     0.0000000000000000     
  -1.0333333333333335E-005     0.0000000000000000     
  -1.0133333333333337E-005     0.0000000000000000     
  -9.9333333333333354E-006     0.0000000000000000     
  -9.7333333333333373E-006     0.0000000000000000     
  -9.5333333333333358E-006     0.0000000000000000     
  -9.3333333333333343E-006     0.0000000000000000     
  -9.1333333333333362E-006     0.0000000000000000     
  -8.9333333333333348E-006     0.0000000000000000     
  -8.7333333333333367E-006     0.0000000000000000     
  -8.5333333333333352E-006     0.0000000000000000     
  -8.3333333333333371E-006     0.0000000000000000     
  -8.1333333333333356E-006     0.0000000000000000     
  -7.9333333333333376E-006     0.0000000000000000     
  -7.7333333333333361E-006     0.0000000000000000     
  -7.5333333333333346E-006     0.0000000000000000     
  -7.3333333333333365E-006     0.0000000000000000     
  -7.1333333333333351E-006     0.0000000000000000     
  -6.9333333333333370E-006     0.0000000000000000     
  -6.7333333333333355E-006     0.0000000000000000     
  -6.5333333333333374E-006     0.0000000000000000     
  -6.3333333333333359E-006     0.0000000000000000     
  -6.1333333333333379E-006     0.0000000000000000     
  -5.9333333333333364E-006     0.0000000000000000     
  -5.7333333333333349E-006     0.0000000000000000     
  -5.5333333333333368E-006     0.0000000000000000     
  -5.3333333333333354E-006     0.0000000000000000     
  -5.1333333333333373E-006     0.0000000000000000     
  -4.9333333333333358E-006     0.0000000000000000     
  -4.7333333333333377E-006     0.0000000000000000     
  -4.5333333333333362E-006     0.0000000000000000     
  -4.3333333333333348E-006     0.0000000000000000     
  -4.1333333333333367E-006     0.0000000000000000     
  -3.9333333333333352E-006     0.0000000000000000     
  -3.7333333333333371E-006     0.0000000000000000     
  -3.5333333333333356E-006     0.0000000000000000     
  -3.3333333333333376E-006     0.0000000000000000     
  -3.1333333333333361E-006     0.0000000000000000     
  -2.9333333333333346E-006     0.0000000000000000     
  -2.7333333333333365E-006     0.0000000000000000     
  -2.5333333333333384E-006     0.0000000000000000     
  -2.3333333333333336E-006     0.0000000000000000     
  -2.1333333333333355E-006     0.0000000000000000     
  -1.9333333333333374E-006     0.0000000000000000     
  -1.7333333333333393E-006     0.0000000000000000     
  -1.5333333333333345E-006     0.0000000000000000     
  -1.3333333333333364E-006     0.0000000000000000     
  -1.1333333333333383E-006     0.0000000000000000     
  -9.3333333333333343E-007     0.0000000000000000     
  -7.3333333333333535E-007     0.0000000000000000     
  -5.3333333333333726E-007     0.0000000000000000     
  -3.3333333333333918E-007     0.0000000000000000     
  -1.3333333333333432E-007     0.0000000000000000     
   6.6666666666663770E-008     0.0000000000000000     
   2.6666666666666185E-007     0.0000000000000000     
   4.6666666666666672E-007     0.0000000000000000     
   6.6666666666666480E-007     0.0000000000000000     
   8.6666666666666289E-007     0.0000000000000000     
   1.0666666666666610E-006     0.0000000000000000     
   1.2666666666666658E-006     0.0000000000000000     
   1.4666666666666639E-006     0.0000000000000000     
   1.6666666666666620E-006     0.0000000000000000     
   1.8666666666666669E-006     0.0000000000000000     
   2.0666666666666649E-006     0.0000000000000000     
   2.2666666666666630E-006     0.0000000000000000     
   2.4666666666666611E-006     0.0000000000000000     
   2.6666666666666660E-006     0.0000000000000000     
   2.8666666666666641E-006     0.0000000000000000     
   3.0666666666666622E-006     0.0000000000000000     
   3.2666666666666602E-006     0.0000000000000000     
   3.4666666666666651E-006     0.0000000000000000     
   3.6666666666666632E-006     0.0000000000000000     
   3.8666666666666613E-006     0.0000000000000000     
   4.0666666666666661E-006     0.0000000000000000     
   4.2666666666666642E-006     0.0000000000000000     
   4.4666666666666623E-006     0.0000000000000000     
   4.6666666666666604E-006     0.0000000000000000     
   4.8666666666666652E-006     0.0000000000000000     
   5.0666666666666633E-006     0.0000000000000000     
   5.2666666666666614E-006     0.0000000000000000     
   5.4666666666666663E-006     0.0000000000000000     
   5.6666666666666644E-006     0.0000000000000000     
   5.8666666666666624E-006     0.0000000000000000     
   6.0666666666666605E-006     0.0000000000000000     
   6.2666666666666654E-006     0.0000000000000000     
   6.4666666666666635E-006     0.0000000000000000     
   6.6666666666666616E-006     0.0000000000000000     
   6.8666666666666664E-006     0.0000000000000000     
   7.0666666666666645E-006     0.0000000000000000     
   7.2666666666666626E-006     0.0000000000000000     
   7.4666666666666607E-006     0.0000000000000000     
   7.6666666666666655E-006     0.0000000000000000     
   7.8666666666666636E-006     0.0000000000000000     
   8.0666666666666617E-006     0.0000000000000000     
   8.2666666666666598E-006     0.0000000000000000     
   8.4666666666666647E-006     0.0000000000000000     
   8.6666666666666627E-006     0.0000000000000000     
   8.8666666666666608E-006     0.0000000000000000     
   9.0666666666666657E-006     0.0000000000000000     
   9.2666666666666638E-006     0.0000000000000000     
   9.4666666666666619E-006     0.0000000000000000     
   9.6666666666666599E-006     0.0000000000000000     
   9.8666666666666648E-006     0.0000000000000000     
   1.0066666666666663E-005     0.0000000000000000     
   1.0266666666666661E-005     0.0000000000000000     
   1.0466666666666666E-005     0.0000000000000000     
   1.0666666666666664E-005     0.0000000000000000     
   1.0866666666666662E-005     0.0000000000000000     
   1.1066666666666660E-005     0.0000000000000000     
   1.1266666666666665E-005     0.0000000000000000     
   1.1466666666666663E-005     0.0000000000000000     
   1.1666666666666661E-005     0.0000000000000000     
   1.1866666666666666E-005     0.0000000000000000     
   1.2066666666666664E-005     0.0000000000000000     
   1.2266666666666662E-005     0.0000000000000000     
   1.2466666666666660E-005     0.0000000000000000     
   1.2666666666666665E-005     0.0000000000000000     
   1.2866666666666663E-005     0.0000000000000000     
   1.3066666666666661E-005     0.0000000000000000     
   1.3266666666666666E-005     0.0000000000000000     
   1.3466666666666664E-005     0.0000000000000000     
   1.3666666666666662E-005     0.0000000000000000     
   1.3866666666666660E-005     0.0000000000000000     
   1.4066666666666665E-005     0.0000000000000000     
   1.4266666666666663E-005     0.0000000000000000     
   1.4466666666666661E-005     0.0000000000000000     
   1.4666666666666666E-005     0.0000000000000000     
   1.4866666666666664E-005     0.0000000000000000     
   1.5066666666666662E-005     0.0000000000000000     
   1.5266666666666661E-005     0.0000000000000000     
   1.5466666666666665E-005     0.0000000000000000     
   1.5666666666666663E-005     0.0000000000000000     
   1.5866666666666662E-005     0.0000000000000000     
   1.6066666666666660E-005     0.0000000000000000     
   1.6266666666666665E-005     0.0000000000000000     
   1.6466666666666663E-005     0.0000000000000000     
   1.6666666666666661E-005     0.0000000000000000     
   1.6866666666666666E-005     0.0000000000000000     
   1.7066666666666664E-005     0.0000000000000000     
   1.7266666666666662E-005     0.0000000000000000     
   1.7466666666666660E-005     0.0000000000000000     
   1.7666666666666665E-005     0.0000000000000000     
   1.7866666666666663E-005     0.0000000000000000     
   1.8066666666666661E-005     0.0000000000000000     
   1.8266666666666666E-005     0.0000000000000000     
   1.8466666666666664E-005     0.0000000000000000     
   1.8666666666666662E-005     0.0000000000000000     
   1.8866666666666660E-005     0.0000000000000000     
   1.9066666666666665E-005     0.0000000000000000     
   1.9266666666666663E-005     0.0000000000000000     
   1.9466666666666661E-005     0.0000000000000000     
   1.9666666666666666E-005     0.0000000000000000     
   1.9866666666666664E-005     0.0000000000000000     
   2.0066666666666662E-005     0.0000000000000000     
   2.0266666666666660E-005     0.0000000000000000     
   2.0466666666666665E-005     0.0000000000000000     
   2.0666666666666663E-005     0.0000000000000000     
   2.0866666666666661E-005     0.0000000000000000     
   2.1066666666666659E-005     0.0000000000000000     
   2.1266666666666664E-005     0.0000000000000000     
   2.1466666666666662E-005     0.0000000000000000     
   2.1666666666666660E-005     0.0000000000000000     
   2.1866666666666665E-005     7.9530687616522364E-037
   2.2066666666666663E-005     1.8008029616268634E-036
   2.2266666666666661E-005     2.8922475650836010E-036
   2.2466666666666659E-005     3.8797017422404675E-036
   2.2666666666666664E-005     4.5272370542421254E-036
   2.2866666666666662E-005     6.2849845936643862E-036
   2.3066666666666660E-005     8.1645953253614533E-036
   2.3266666666666665E-005     1.2939132097657995E-035
   2.3466666666666663E-005     1.7893466269741167E-035
   2.3666666666666661E-005     2.2307312673693875E-035
   2.3866666666666660E-005     2.5246022722016299E-035
   2.4066666666666664E-005     2.3489020269803102E-035
   2.4266666666666662E-005     2.0134097403596386E-035
   2.4466666666666661E-005     1.4267452193524200E-035
   2.4666666666666665E-005    -2.1611526687088263E-037
   2.4866666666666663E-005    -1.7124421475617874E-035
   2.5066666666666662E-005    -2.8308549978033735E-035
   2.5266666666666660E-005    -4.1787242879282850E-035
   2.5466666666666665E-005    -5.4972498411433144E-035
   2.5666666666666663E-005    -6.9396072383355556E-035
   2.5866666666666661E-005    -9.5137912079269595E-035
   2.6066666666666666E-005    -9.4868334720016322E-035
   2.6266666666666664E-005    -9.4951973898142212E-035
   2.6466666666666662E-005    -8.5734737874408638E-035
   2.6666666666666660E-005    -7.0699344347644669E-035
   2.6866666666666665E-005    -5.3927295670785007E-035
   2.7066666666666663E-005    -3.2240842608585741E-035
   2.7266666666666661E-005    -1.7891516469426743E-037
   2.7466666666666666E-005     3.9085634862884830E-035
   2.7666666666666664E-005     1.2446532522970965E-034
   2.7866666666666662E-005     2.5000935019729107E-034
   2.8066666666666667E-005     4.3464863302588932E-034
   2.8266666666666658E-005     6.7598143442279550E-034
   2.8466666666666663E-005     9.6505569909915075E-034
   2.8666666666666668E-005     1.2759688121038610E-033
   2.8866666666666659E-005     1.5760719688558140E-033
   2.9066666666666664E-005     1.7761985963863622E-033
   2.9266666666666669E-005     1.7754071580804727E-033
   2.9466666666666660E-005     1.4319808815224757E-033
   2.9666666666666665E-005     6.3409921355147050E-034
   2.9866666666666656E-005    -7.2428828293434125E-034
   3.0066666666666661E-005    -2.6801506297618320E-033
   3.0266666666666666E-005    -5.2099514912916624E-033
   3.0466666666666657E-005    -8.1345325796535577E-033
   3.0666666666666662E-005    -1.1076069806684080E-032
   3.0866666666666667E-005    -1.3486921292828249E-032
   3.1066666666666658E-005    -1.4646750712057891E-032
   3.1266666666666663E-005    -1.3705804218423113E-032
   3.1466666666666668E-005    -9.7950505933045063E-033
   3.1666666666666659E-005    -2.1889980495905788E-033
   3.1866666666666664E-005     9.5074519413804176E-033
   3.2066666666666656E-005     2.5079424706078931E-032
   3.2266666666666660E-005     4.3508531264683049E-032
   3.2466666666666665E-005     6.2799110613230788E-032
   3.2666666666666657E-005     7.9871761343175282E-032
   3.2866666666666661E-005     9.0655035343536700E-032
   3.3066666666666666E-005     9.0387757315518482E-032
   3.3266666666666658E-005     7.4178618858216287E-032
   3.3466666666666662E-005     3.7829588751481987E-032
   3.3666666666666667E-005    -2.1102949191805850E-032
   3.3866666666666659E-005    -1.0215911072487884E-031
   3.4066666666666664E-005    -2.0080868902582967E-031
   3.4266666666666668E-005    -3.0754884229518506E-031
   3.4466666666666660E-005    -4.0750594647244254E-031
   3.4666666666666665E-005    -4.8081212517842203E-031
   3.4866666666666656E-005    -5.0400096117777120E-031
   3.5066666666666661E-005    -4.5258248728410270E-031
   3.5266666666666666E-005    -3.0481210336737464E-031
   3.5466666666666657E-005    -4.6471376530874133E-032
   3.5666666666666662E-005     3.2377466101732542E-031
   3.5866666666666667E-005     7.8912684906294184E-031
   3.6066666666666658E-005     1.3104405380593977E-030
   3.6266666666666663E-005     1.8241618501032145E-030
   3.6466666666666668E-005     2.2435438160020146E-030
   3.6666666666666659E-005     2.4641669904536100E-030
   3.6866666666666664E-005     2.3744295636327405E-030
   3.7066666666666669E-005     1.8710862680343673E-030
   3.7266666666666660E-005     8.7911460916076251E-031
   3.7466666666666665E-005    -6.2577836732126352E-031
   3.7666666666666656E-005    -2.5947435360502956E-030
   3.7866666666666661E-005    -4.8871202085719100E-030
   3.8066666666666666E-005    -7.2598576245767548E-030
   3.8266666666666657E-005    -9.3695589014777593E-030
   3.8466666666666662E-005    -1.0791212677949809E-029
   3.8666666666666667E-005    -1.1056413231291932E-029
   3.8866666666666658E-005    -9.7116996037817672E-030
   3.9066666666666663E-005    -6.3946787360438607E-030
   3.9266666666666668E-005    -9.2201404039515173E-031
   3.9466666666666659E-005     6.6205203530967225E-030
   3.9666666666666664E-005     1.5799239909628089E-029
   3.9866666666666655E-005     2.5781024857036708E-029
   4.0066666666666660E-005     3.5326069078369063E-029
   4.0266666666666665E-005     4.2840611377865032E-029
   4.0466666666666656E-005     4.6501295636269228E-029
   4.0666666666666661E-005     4.4455368219284515E-029
   4.0866666666666666E-005     3.5091003310125525E-029
   4.1066666666666657E-005     1.7359222099722983E-029
   4.1266666666666662E-005    -8.8845773918765187E-030
   4.1466666666666667E-005    -4.2564631635365418E-029
   4.1666666666666658E-005    -8.1149894782575776E-029
   4.1866666666666663E-005    -1.2056085525445909E-028
   4.2066666666666668E-005    -1.5527651287401677E-028
   4.2266666666666660E-005    -1.7868830987098245E-028
   4.2466666666666664E-005    -1.8372544723284359E-028
   4.2666666666666656E-005    -1.6374417683813122E-028
   4.2866666666666661E-005    -1.1363147968517534E-028
   4.3066666666666665E-005    -3.1028199925660965E-029
   4.3266666666666657E-005     8.2469698462277891E-029
   4.3466666666666662E-005     2.2031275968354324E-028
   4.3666666666666666E-005     3.7040801545054795E-028
   4.3866666666666658E-005     5.1514509337102431E-028
   4.4066666666666663E-005     6.3222020801913695E-028
   4.4266666666666667E-005     6.9637827892227145E-028
   4.4466666666666659E-005     6.8209953061108170E-028
   4.4666666666666664E-005     5.6712950554043293E-028
   4.4866666666666655E-005     3.3660426158553332E-028
   4.5066666666666660E-005    -1.2634646616875433E-029
   4.5266666666666665E-005    -4.6808326184297226E-028
   4.5466666666666656E-005    -9.9863261698468622E-028
   4.5666666666666661E-005    -1.5533438706884561E-027
   4.5866666666666666E-005    -2.0626089554945203E-027
   4.6066666666666657E-005    -2.4422234216358497E-027
   4.6266666666666662E-005    -2.6006546559070213E-027
   4.6466666666666667E-005    -2.4494225477679692E-027
   4.6666666666666658E-005    -1.9160770793847452E-027
   4.6866666666666663E-005    -9.5874978562083480E-028
   4.7066666666666668E-005     4.1923455251251772E-028
   4.7266666666666659E-005     2.1566274627756609E-027
   4.7466666666666664E-005     4.1256446970647169E-027
   4.7666666666666655E-005     6.1297704786819855E-027
   4.7866666666666660E-005     7.9100746969982804E-027
   4.8066666666666665E-005     9.1615886564358161E-027
   4.8266666666666656E-005     9.5603994441118363E-027
   4.8466666666666661E-005     8.8009135927745964E-027
   4.8666666666666666E-005     6.6412658866601474E-027
   4.8866666666666657E-005     2.9532718212739193E-027
   4.9066666666666662E-005    -2.2282581900112665E-027
   4.9266666666666667E-005    -8.6633382538711941E-027
   4.9466666666666658E-005    -1.5879105961454143E-026
   4.9666666666666663E-005    -2.3164100835702102E-026
   4.9866666666666655E-005    -2.9591346601734251E-026
   5.0066666666666659E-005    -3.4075213498083016E-026
   5.0266666666666664E-005    -3.5464335922418998E-026
   5.0466666666666656E-005    -3.2668871719300257E-026
   5.0666666666666660E-005    -2.4815884667341526E-026
   5.0866666666666665E-005    -1.1421339267711714E-026
   5.1066666666666657E-005     7.4377896819438872E-027
   5.1266666666666661E-005     3.0972373957327984E-026
   5.1466666666666666E-005     5.7575228871709318E-026
   5.1666666666666658E-005     8.4785870298684331E-026
   5.1866666666666662E-005     1.0935008676684498E-025
   5.2066666666666667E-005     1.2739340642912572E-025
   5.2266666666666659E-005     1.3471984115280107E-025
   5.2466666666666664E-005     1.2723510423216082E-025
   5.2666666666666655E-005     1.0147888812133212E-025
   5.2866666666666660E-005     5.5233402829923414E-026
   5.3066666666666665E-005    -1.1842879110219414E-026
   5.3266666666666656E-005    -9.7624661649841985E-026
   5.3466666666666661E-005    -1.9705553127575227E-025
   5.3666666666666666E-005    -3.0190194950493227E-025
   5.3866666666666657E-005    -4.0081840170195277E-025
   5.4066666666666662E-005    -4.7980738926837872E-025
   5.4266666666666667E-005    -5.2313498284196388E-025
   5.4466666666666658E-005    -5.1472740192173149E-025
   5.4666666666666663E-005    -4.4002444356479103E-025
   5.4866666666666668E-005    -2.8820350314528584E-025
   5.5066666666666659E-005    -5.4617703056374236E-026
   5.5266666666666664E-005     2.5678011645432521E-025
   5.5466666666666655E-005     6.3132543175218232E-025
   5.5666666666666660E-005     1.0421910617658694E-024
   5.5866666666666665E-005     1.4499749573495039E-024
   5.6066666666666656E-005     1.8036937777557507E-024
   5.6266666666666661E-005     2.0434909268639287E-024
   5.6466666666666666E-005     2.1052543970077552E-024
   5.6666666666666657E-005     1.9271662866409435E-024
   5.6866666666666662E-005     1.4579748943969634E-024
   5.7066666666666667E-005     6.6650251445302399E-025
   5.7266666666666658E-005    -4.4839958258029620E-025
   5.7466666666666663E-005    -1.8485417035089231E-024
   5.7666666666666654E-005    -3.4490785546212962E-024
   5.7866666666666659E-005    -5.1147078688975285E-024
   5.8066666666666664E-005    -6.6609379575726767E-024
   5.8266666666666655E-005    -7.8618217024515282E-024
   5.8466666666666660E-005    -8.4651882766970608E-024
   5.8666666666666665E-005    -8.2157717577106178E-024
   5.8866666666666656E-005    -6.8857704153088120E-024
   5.9066666666666661E-005    -4.3112983964319781E-024
   5.9266666666666666E-005    -4.3196884251970694E-025
   5.9466666666666657E-005     4.6703764420054570E-024
   5.9666666666666662E-005     1.0738899186849332E-023
   5.9866666666666667E-005     1.7320851657425849E-023
   6.0066666666666659E-005     2.3764712448821618E-023
   6.0266666666666663E-005     2.9241148935934168E-023
   6.0466666666666655E-005     3.2792341984862251E-023
   6.0666666666666660E-005     3.3411944894259043E-023
   6.0866666666666664E-005     3.0154820258135628E-023
   6.1066666666666656E-005     2.2271660657058776E-023
   6.1266666666666661E-005     9.3590536681511363E-024
   6.1466666666666665E-005    -8.4892351236709129E-024
   6.1666666666666657E-005    -3.0548212569794863E-023
   6.1866666666666662E-005    -5.5366625462381912E-023
   6.2066666666666666E-005    -8.0734076078671923E-023
   6.2266666666666658E-005    -1.0373243855706392E-022
   6.2466666666666663E-005    -1.2088929865406880E-022
   6.2666666666666668E-005    -1.2844401128409145E-022
   6.2866666666666659E-005    -1.2272506002205224E-022
   6.3066666666666664E-005    -1.0062427610339520E-022
   6.3266666666666655E-005    -6.0136154225995051E-023
   6.3466666666666660E-005    -9.1439786309516796E-025
   6.3666666666666665E-005     7.5218265966057982E-023
   6.3866666666666656E-005     1.6388286169911260E-022
   6.4066666666666661E-005     2.5796117632187109E-022
   6.4266666666666666E-005     3.4769628785774683E-022
   6.4466666666666657E-005     4.2114224211615011E-022
   6.4666666666666662E-005     4.6500379197065222E-022
   6.4866666666666667E-005     4.6587055446798561E-022
   6.5066666666666658E-005     4.1180129596121742E-022
   6.5266666666666663E-005     2.9416181393584606E-022
   6.5466666666666654E-005     1.0955960260263773E-022
   6.5666666666666659E-005    -1.3833265409918823E-022
   6.5866666666666664E-005    -4.3731626356678376E-022
   6.6066666666666655E-005    -7.6584055561146949E-022
   6.6266666666666660E-005    -1.0930810112427879E-021
   6.6466666666666665E-005    -1.3801501452253556E-021
   6.6666666666666656E-005    -1.5825917959087512E-021
   6.6866666666666661E-005    -1.6541953245022438E-021
   6.7066666666666666E-005    -1.5520143860191323E-021
   6.7266666666666657E-005    -1.2423035051744304E-021
   6.7466666666666662E-005    -7.0689479880234019E-022
   6.7666666666666667E-005     5.0629241202934719E-023
   6.7866666666666658E-005     9.9975591363410888E-022
   6.8066666666666663E-005     2.0797249206724200E-021
   6.8266666666666655E-005     3.1989380538059212E-021
   6.8466666666666659E-005     4.2378510537783817E-021
   6.8666666666666664E-005     5.0558842119793093E-021
   6.8866666666666656E-005     5.5025314504991837E-021
   6.9066666666666660E-005     5.4324101221268418E-021
   6.9266666666666665E-005     4.7234488864060571E-021
   6.9466666666666657E-005     3.2968553568684941E-021
   6.9666666666666661E-005     1.1369567227282605E-021
   6.9866666666666666E-005    -1.6914427868483343E-021
   7.0066666666666658E-005    -5.0308119152484295E-021
   7.0266666666666662E-005    -8.6264234624518748E-021
   7.0466666666666654E-005    -1.2132048017987851E-020
   7.0666666666666659E-005    -1.5127596980230544E-020
   7.0866666666666664E-005    -1.7149507509471441E-020
   7.1066666666666655E-005    -1.7733388777595908E-020
   7.1266666666666660E-005    -1.6466894480420528E-020
   7.1466666666666665E-005    -1.3049106973973593E-020
   7.1666666666666656E-005    -7.3511573349330247E-021
   7.1866666666666661E-005     5.2863520585195156E-022
   7.2066666666666666E-005     1.0222689789810285E-020
   7.2266666666666657E-005     2.1072998022633778E-020
   7.2466666666666662E-005     3.2138096141527596E-020
   7.2666666666666667E-005     4.2233812899517424E-020
   7.2866666666666658E-005     5.0010845465293082E-020
   7.3066666666666663E-005     5.4068693051271332E-020
   7.3266666666666654E-005     5.3101198696139729E-020
   7.3466666666666659E-005     4.6064302139317231E-020
   7.3666666666666664E-005     3.2351983722183641E-020
   7.3866666666666655E-005     1.1962315241494658E-020
   7.4066666666666660E-005    -1.4367230589186780E-020
   7.4266666666666665E-005    -4.5077304416305277E-020
   7.4466666666666656E-005    -7.7777834906754914E-020
   7.4666666666666661E-005    -1.0932988327781149E-019
   7.4866666666666666E-005    -1.3602875313509435E-019
   7.5066666666666657E-005    -1.5388970221043389E-019
   7.5266666666666662E-005    -1.5902641626620576E-019
   7.5466666666666653E-005    -1.4810008415741625E-019