  -3.3333333333333335E-005     0.0000000000000000     
  -3.3133333333333337E-005     0.0000000000000000     
  -3.2933333333333332E-005     0.0000000000000000     
  -3.2733333333333334E-005     0.0000000000000000     
  -3.2533333333333336E-005     0.0000000000000000     
  -3.2333333333333338E-005     0.0000000000000000     
  -3.2133333333333333E-005     0.0000000000000000     
  -3.1933333333333335E-005     0.0000000000000000     
  -3.1733333333333337E-005     0.0000000000000000     
  -3.1533333333333332E-005     0.0000000000000000     
  -3.1333333333333334E-005     0.0000000000000000     
  -3.1133333333333336E-005     0.0000000000000000     
  -3.0933333333333338E-005     0.0000000000000000     
  -3.0733333333333333E-005     0.0000000000000000     
  -3.0533333333333335E-005     0.0000000000000000     
  -3.0333333333333337E-005     0.0000000000000000     
  -3.0133333333333335E-005     0.0000000000000000     
  -2.9933333333333334E-005     0.0000000000000000     
  -2.9733333333333336E-005     0.0000000000000000     
  -2.9533333333333334E-005     0.0000000000000000     
  -2.9333333333333336E-005     0.0000000000000000     
  -2.9133333333333334E-005     0.0000000000000000     
  -2.8933333333333336E-005     0.0000000000000000     
  -2.8733333333333335E-005     0.0000000000000000     
  -2.8533333333333333E-005     0.0000000000000000     
  -2.8333333333333335E-005     0.0000000000000000     
  -2.8133333333333337E-005     0.0000000000000000     
  -2.7933333333333336E-005     0.0000000000000000     
  -2.7733333333333334E-005     0.0000000000000000     
  -2.7533333333333336E-005     0.0000000000000000     
  -2.7333333333333335E-005     0.0000000000000000     
  -2.7133333333333333E-005     0.0000000000000000     
  -2.6933333333333335E-005     0.0000000000000000     
  -2.6733333333333337E-005     0.0000000000000000     
  -2.6533333333333336E-005     0.0000000000000000     
  -2.6333333333333334E-005     0.0000000000000000     
  -2.6133333333333336E-005     0.0000000000000000     
  -2.5933333333333335E-005     0.0000000000000000     
  -2.5733333333333333E-005     0.0000000000000000     
  -2.5533333333333335E-005     0.0000000000000000     
  -2.5333333333333337E-005     0.0000000000000000     
  -2.5133333333333336E-005     0.0000000000000000     
  -2.4933333333333334E-005     0.0000000000000000     
  -2.4733333333333336E-005     0.0000000000000000     
  -2.4533333333333334E-005     0.0000000000000000     
  -2.4333333333333333E-005     0.0000000000000000     
  -2.4133333333333335E-005     0.0000000000000000     
  -2.3933333333333337E-005     0.0000000000000000     
  -2.3733333333333335E-005     0.0000000000000000     
  -2.3533333333333334E-005     0.0000000000000000     
  -2.3333333333333336E-005     0.0000000000000000     
  -2.3133333333333338E-005     0.0000000000000000     
  -2.2933333333333336E-005     0.0000000000000000     
  -2.2733333333333335E-005     0.0000000000000000     
  -2.2533333333333337E-005     0.0000000000000000     
  -2.2333333333333335E-005     0.0000000000000000     
  -2.2133333333333334E-005     0.0000000000000000     
  -2.1933333333333336E-005     0.0000000000000000     
  -2.1733333333333338E-005     0.0000000000000000     
  -2.1533333333333336E-005     0.0000000000000000     
  -2.1333333333333335E-005     0.0000000000000000     
  -2.1133333333333337E-005     0.0000000000000000     
  -2.0933333333333335E-005     0.0000000000000000     
  -2.0733333333333334E-005     0.0000000000000000     
  -2.0533333333333336E-005     0.0000000000000000     
  -2.0333333333333337E-005     0.0000000000000000     
  -2.0133333333333336E-005     0.0000000000000000     
  -1.9933333333333334E-005     0.0000000000000000     
  -1.9733333333333336E-005     0.0000000000000000     
  -1.9533333333333335E-005     0.0000000000000000     
  -1.9333333333333333E-005     0.0000000000000000     
  -1.9133333333333335E-005     0.0000000000000000     
  -1.8933333333333337E-005     0.0000000000000000     
  -1.8733333333333336E-005     0.0000000000000000     
  -1.8533333333333334E-005     0.0000000000000000     
  -1.8333333333333336E-005     0.0000000000000000     
  -1.8133333333333335E-005     0.0000000000000000     
  -1.7933333333333337E-005     0.0000000000000000     
  -1.7733333333333335E-005     0.0000000000000000     
  -1.7533333333333337E-005     0.0000000000000000     
  -1.7333333333333336E-005     0.0000000000000000     
  -1.7133333333333334E-005     0.0000000000000000     
  -1.6933333333333336E-005     0.0000000000000000     
  -1.6733333333333335E-005     0.0000000000000000     
  -1.6533333333333337E-005     0.0000000000000000     
  -1.6333333333333335E-005     0.0000000000000000     
  -1.6133333333333337E-005     0.0000000000000000     
  -1.5933333333333336E-005     0.0000000000000000     
  -1.5733333333333334E-005     0.0000000000000000     
  -1.5533333333333336E-005     0.0000000000000000     
  -1.5333333333333334E-005     0.0000000000000000     
  -1.5133333333333336E-005     0.0000000000000000     
  -1.4933333333333335E-005     0.0000000000000000     
  -1.4733333333333337E-005     0.0000000000000000     
  -1.4533333333333335E-005     0.0000000000000000     
  -1.4333333333333337E-005     0.0000000000000000     
  -1.4133333333333336E-005     0.0000000000000000     
  -1.3933333333333334E-005     0.0000000000000000     
  -1.3733333333333336E-005     0.0000000000000000     
  -1.3533333333333335E-005     0.0000000000000000     
  -1.3333333333333337E-005     0.0000000000000000     
  -1.3133333333333335E-005     0.0000000000000000     
  -1.2933333333333337E-005     0.0000000000000000     
  -1.2733333333333336E-005     0.0000000000000000     
  -1.2533333333333338E-005     0.0000000000000000     
  -1.2333333333333336E-005     0.0000000000000000     
  -1.2133333333333335E-005     0.0000000000000000     
  -1.1933333333333337E-005     0.0000000000000000     
  -1.1733333333333335E-005     0.0000000000000000     
  -1.1533333333333337E-005     0.0000000000000000     
  -1.1333333333333336E-005     0.0000000000000000     
  -1.1133333333333337E-005     0.0000000000000000     
  -1.0933333333333336E-005     0.0000000000000000     
  -1.0733333333333334E-005     0.0000000000000000     
  -1.0533333333333336E-005     0.0000000000000000     
  -1.0333333333333335E-005     0.0000000000000000     
  -1.0133333333333337E-005     0.0000000000000000     
  -9.9333333333333354E-006     0.0000000000000000     
  -9.7333333333333373E-006     0.0000000000000000     
  -9.5333333333333358E-006     0.0000000000000000     
  -9.3333333333333343E-006     0.0000000000000000     
  -9.1333333333333362E-006     0.0000000000000000     
  -8.9333333333333348E-006     0.0000000000000000     
  -8.7333333333333367E-006     0.0000000000000000     
  -8.5333333333333352E-006     0.0000000000000000     
  -8.3333333333333371E-006     0.0000000000000000     
  -8.1333333333333356E-006     0.0000000000000000     
  -7.9333333333333376E-006     0.0000000000000000     
  -7.7333333333333361E-006     0.0000000000000000     
  -7.5333333333333346E-006     0.0000000000000000     
  -7.3333333333333365E-006     0.0000000000000000     
  -7.1333333333333351E-006     0.0000000000000000     
  -6.9333333333333370E-006     0.0000000000000000     
  -6.7333333333333355E-006     0.0000000000000000     
  -6.5333333333333374E-006     0.0000000000000000     
  -6.3333333333333359E-006     0.0000000000000000     
  -6.1333333333333379E-006     0.0000000000000000     
  -5.9333333333333364E-006     0.0000000000000000     
  -5.7333333333333349E-006     0.0000000000000000     
  -5.5333333333333368E-006     0.0000000000000000     
  -5.3333333333333354E-006     0.0000000000000000     
  -5.1333333333333373E-006     0.0000000000000000     
  -4.9333333333333358E-006     0.0000000000000000     
  -4.7333333333333377E-006     0.0000000000000000     
  -4.5333333333333362E-006     0.0000000000000000     
  -4.3333333333333348E-006     0.0000000000000000     
  -4.1333333333333367E-006     0.0000000000000000     
  -3.9333333333333352E-006     0.0000000000000000     
  -3.7333333333333371E-006     0.0000000000000000     
  -3.5333333333333356E-006     0.0000000000000000     
  -3.3333333333333376E-006     0.0000000000000000     
  -3.1333333333333361E-006     0.0000000000000000     
  -2.9333333333333346E-006     0.0000000000000000     
  -2.7333333333333365E-006     0.0000000000000000     
  -2.5333333333333384E-006     0.0000000000000000     
  -2.3333333333333336E-006     0.0000000000000000     
  -2.1333333333333355E-006     0.0000000000000000     
  -1.9333333333333374E-006     0.0000000000000000     
  -1.7333333333333393E-006     0.0000000000000000     
  -1.5333333333333345E-006     0.0000000000000000     
  -1.3333333333333364E-006     0.0000000000000000     
  -1.1333333333333383E-006     0.0000000000000000     
  -9.3333333333333343E-007     0.0000000000000000     
  -7.3333333333333535E-007     0.0000000000000000     
  -5.3333333333333726E-007     0.0000000000000000     
  -3.3333333333333918E-007     0.0000000000000000     
  -1.3333333333333432E-007     0.0000000000000000     
   6.6666666666663770E-008     0.0000000000000000     
   2.6666666666666185E-007     0.0000000000000000     
   4.6666666666666672E-007     0.0000000000000000     
   6.6666666666666480E-007     0.0000000000000000     
   8.6666666666666289E-007     0.0000000000000000     
   1.0666666666666610E-006     0.0000000000000000     
   1.2666666666666658E-006     0.0000000000000000     
   1.4666666666666639E-006     0.0000000000000000     
   1.6666666666666620E-006     0.0000000000000000     
   1.8666666666666669E-006     0.0000000000000000     
   2.0666666666666649E-006     0.0000000000000000     
   2.2666666666666630E-006     0.0000000000000000     
   2.4666666666666611E-006     0.0000000000000000     
   2.6666666666666660E-006     0.0000000000000000     
   2.8666666666666641E-006     0.0000000000000000     
   3.0666666666666622E-006     0.0000000000000000     
   3.2666666666666602E-006     0.0000000000000000     
   3.4666666666666651E-006     0.0000000000000000     
   3.6666666666666632E-006     0.0000000000000000     
   3.8666666666666613E-006     0.0000000000000000     
   4.0666666666666661E-006     0.0000000000000000     
   4.2666666666666642E-006     0.0000000000000000     
   4.4666666666666623E-006     0.0000000000000000     
   4.6666666666666604E-006     0.0000000000000000     
   4.8666666666666652E-006     0.0000000000000000     
   5.0666666666666633E-006     0.0000000000000000     
   5.2666666666666614E-006     0.0000000000000000     
   5.4666666666666663E-006     0.0000000000000000     
   5.6666666666666644E-006     0.0000000000000000     
   5.8666666666666624E-006     0.0000000000000000     
   6.0666666666666605E-006     0.0000000000000000     
   6.2666666666666654E-006     0.0000000000000000     
   6.4666666666666635E-006     0.0000000000000000     
   6.6666666666666616E-006     0.0000000000000000     
   6.8666666666666664E-006     0.0000000000000000     
   7.0666666666666645E-006     0.0000000000000000     
   7.2666666666666626E-006     0.0000000000000000     
   7.4666666666666607E-006     0.0000000000000000     
   7.6666666666666655E-006     0.0000000000000000     
   7.8666666666666636E-006     0.0000000000000000     
   8.0666666666666617E-006     0.0000000000000000     
   8.2666666666666598E-006     0.0000000000000000     
   8.4666666666666647E-006     0.0000000000000000     
   8.6666666666666627E-006     0.0000000000000000     
   8.8666666666666608E-006     0.0000000000000000     
   9.0666666666666657E-006     0.0000000000000000     
   9.2666666666666638E-006     0.0000000000000000     
   9.4666666666666619E-006     0.0000000000000000     
   9.6666666666666599E-006     0.0000000000000000     
   9.8666666666666648E-006     0.0000000000000000     
   1.0066666666666663E-005     0.0000000000000000     
   1.0266666666666661E-005     0.0000000000000000     
   1.0466666666666666E-005     0.0000000000000000     
   1.0666666666666664E-005     0.0000000000000000     
   1.0866666666666662E-005     0.0000000000000000     
   1.1066666666666660E-005     0.0000000000000000     
   1.1266666666666665E-005     0.0000000000000000     
   1.1466666666666663E-005     0.0000000000000000     
   1.1666666666666661E-005     0.0000000000000000     
   1.1866666666666666E-005     0.0000000000000000     
   1.2066666666666664E-005     0.0000000000000000     
   1.2266666666666662E-005     0.0000000000000000     
   1.2466666666666660E-005     0.0000000000000000     
   1.2666666666666665E-005     0.0000000000000000     
   1.2866666666666663E-005     0.0000000000000000     
   1.3066666666666661E-005     0.0000000000000000     
   1.3266666666666666E-005     0.0000000000000000     
   1.3466666666666664E-005     0.0000000000000000     
   1.3666666666666662E-005     0.0000000000000000     
   1.3866666666666660E-005     0.0000000000000000     
   1.4066666666666665E-005     0.0000000000000000     
   1.4266666666666663E-005     0.0000000000000000     
   1.4466666666666661E-005     0.0000000000000000     
   1.4666666666666666E-005     0.0000000000000000     
   1.4866666666666664E-005     0.0000000000000000     
   1.5066666666666662E-005     0.0000000000000000     
   1.5266666666666661E-005     0.0000000000000000     
   1.5466666666666665E-005     0.0000000000000000     
   1.5666666666666663E-005     0.0000000000000000     
   1.5866666666666662E-005     0.0000000000000000     
   1.6066666666666660E-005     0.0000000000000000     
   1.6266666666666665E-005     0.0000000000000000     
   1.6466666666666663E-005     0.0000000000000000     
   1.6666666666666661E-005     0.0000000000000000     
   1.6866666666666666E-005     0.0000000000000000     
   1.7066666666666664E-005     0.0000000000000000     
   1.7266666666666662E-005     0.0000000000000000     
   1.7466666666666660E-005     0.0000000000000000     
   1.7666666666666665E-005     0.0000000000000000     
   1.7866666666666663E-005     0.0000000000000000     
   1.8066666666666661E-005     0.0000000000000000     
   1.8266666666666666E-005     0.0000000000000000     
   1.8466666666666664E-005     0.0000000000000000     
   1.8666666666666662E-005     0.0000000000000000     
   1.8866666666666660E-005     0.0000000000000000     
   1.9066666666666665E-005     0.0000000000000000     
   1.9266666666666663E-005     0.0000000000000000     
   1.9466666666666661E-005     0.0000000000000000     
   1.9666666666666666E-005     0.0000000000000000     
   1.9866666666666664E-005     0.0000000000000000     
   2.0066666666666662E-005     0.0000000000000000     
   2.0266666666666660E-005     0.0000000000000000     
   2.0466666666666665E-005     0.0000000000000000     
   2.0666666666666663E-005     0.0000000000000000     
   2.0866666666666661E-005     0.0000000000000000     
   2.1066666666666659E-005     0.0000000000000000     
   2.1266666666666664E-005     0.0000000000000000     
   2.1466666666666662E-005     0.0000000000000000     
   2.1666666666666660E-005     0.0000000000000000     
   2.1866666666666665E-005    -1.4366597041838312E-036
   2.2066666666666663E-005    -3.2530098592750119E-036
   2.2266666666666661E-005    -5.2246189516427879E-036
   2.2466666666666659E-005    -7.0083778191545791E-036
   2.2666666666666664E-005    -8.1781001655503741E-036
   2.2866666666666662E-005    -1.1353333969157332E-035
   2.3066666666666660E-005    -1.4748703196773505E-035
   2.3266666666666665E-005    -2.3373529958736290E-035
   2.3466666666666663E-005    -3.2323147302158086E-035
   2.3666666666666661E-005    -4.0296417003105825E-035
   2.3866666666666660E-005    -4.5604967858518507E-035
   2.4066666666666664E-005    -4.2431078583972487E-035
   2.4266666666666662E-005    -3.6370673391373586E-035
   2.4466666666666661E-005    -2.5773035066015207E-035
   2.4666666666666665E-005     3.9039533981912129E-037
   2.4866666666666663E-005     3.0933928792902113E-035
   2.5066666666666662E-005     7.9693024075137143E-035
   2.5266666666666660E-005     1.3748468280790979E-034
   2.5466666666666665E-005     1.9646941664930047E-034
   2.5666666666666663E-005     2.5414093733394294E-034
   2.5866666666666661E-005     3.0064156530705332E-034
   2.6066666666666666E-005     3.0015458462980153E-034
   2.6266666666666664E-005     2.7450118825640614E-034
   2.6466666666666662E-005     1.9562779024476056E-034
   2.6666666666666660E-005     6.4104895655872264E-035
   2.6866666666666665E-005    -1.1367951023300504E-034
   2.7066666666666663E-005    -3.3642085828119901E-034
   2.7266666666666661E-005    -5.9616812306684692E-034
   2.7466666666666666E-005    -8.5770174896488603E-034
   2.7666666666666664E-005    -1.1119611770477468E-033
   2.7866666666666662E-005    -1.3087937571666041E-033
   2.8066666666666667E-005    -1.4274155553374697E-033
   2.8266666666666658E-005    -1.4182240160335048E-033
   2.8466666666666663E-005    -1.2419164856349663E-033
   2.8666666666666668E-005    -8.6446772914432603E-034
   2.8866666666666659E-005    -2.8986352188921107E-034
   2.9066666666666664E-005     5.1966010897086867E-034
   2.9266666666666669E-005     1.5592431141848621E-033
   2.9466666666666660E-005     2.8087774460616299E-033
   2.9666666666666665E-005     4.2180006651166900E-033
   2.9866666666666656E-005     5.6981368665820508E-033
   3.0066666666666661E-005     7.1093501608388546E-033
   3.0266666666666666E-005     8.2511864349772537E-033
   3.0466666666666657E-005     8.8522424104916135E-033
   3.0666666666666662E-005     8.5699040957874546E-033
   3.0866666666666667E-005     7.0053703386689306E-033
   3.1066666666666658E-005     3.7372153941067125E-033
   3.1266666666666663E-005    -1.6184219079090717E-033
   3.1466666666666668E-005    -9.3167470847427023E-033
   3.1666666666666659E-005    -1.9363531997327709E-032
   3.1866666666666664E-005    -3.1373024399117335E-032
   3.2066666666666656E-005    -4.4417417619267087E-032
   3.2266666666666660E-005    -5.6900779711864009E-032
   3.2466666666666665E-005    -6.6489428190843507E-032
   3.2666666666666657E-005    -7.0144163554456835E-032
   3.2866666666666661E-005    -6.4303555303187185E-032
   3.3066666666666666E-005    -4.5259230266193206E-032
   3.3266666666666658E-005    -9.7487118713111224E-033
   3.3466666666666662E-005     4.4238319299975804E-032
   3.3666666666666667E-005     1.1648665888470681E-031
   3.3866666666666659E-005     2.0351799191549189E-031
   3.4066666666666664E-005     2.9764683053216335E-031
   3.4266666666666668E-005     3.8635048060114576E-031
   3.4466666666666660E-005     4.5221173636585335E-031
   3.4666666666666665E-005     4.7370814261866262E-031
   3.4866666666666656E-005     4.2708817772437279E-031
   3.5066666666666661E-005     2.8948596100157962E-031
   3.5266666666666666E-005     4.3269332857970099E-032
   3.5466666666666657E-005    -3.1860836334546147E-031
   3.5666666666666662E-005    -7.8675818092626090E-031
   3.5866666666666667E-005    -1.3298171988592562E-030
   3.6066666666666658E-005    -1.8903218695121271E-030
   3.6266666666666663E-005    -2.3833035115464200E-030
   3.6466666666666668E-005    -2.6989882558721774E-030
   3.6666666666666659E-005    -2.7108441978550229E-030
   3.6866666666666664E-005    -2.2897982961927468E-030
   3.7066666666666669E-005    -1.3247249573314940E-030
   3.7266666666666660E-005     2.5173063410571083E-031
   3.7466666666666665E-005     2.4342035454116019E-030
   3.7666666666666656E-005     5.1161599225753930E-030
   3.7866666666666661E-005     8.0669042737609200E-030
   3.8066666666666666E-005     1.0920027298573934E-029
   3.8266666666666657E-005     1.3179663726278254E-029
   3.8466666666666662E-005     1.4250432627108948E-029
   3.8666666666666667E-005     1.3495230356931641E-029
   3.8866666666666658E-005     1.0322007995248469E-029
   3.9066666666666663E-005     4.2963521067187011E-030
   3.9266666666666668E-005    -4.7287692705330916E-030
   3.9466666666666659E-005    -1.6480749780675510E-029
   3.9666666666666664E-005    -3.0153000182886181E-029
   3.9866666666666655E-005    -4.4333568196629713E-029
   4.0066666666666660E-005    -5.7003921253747531E-029
   4.0266666666666665E-005    -6.5633610092964629E-029
   4.0466666666666656E-005    -6.7390425332641437E-029
   4.0666666666666661E-005    -5.9474137056011829E-029
   4.0866666666666666E-005    -3.9565122136134898E-029
   4.1066666666666657E-005    -6.3578505920721465E-030
   4.1266666666666662E-005     3.9874631115260079E-029
   4.1466666666666667E-005     9.6762825044208705E-029
   4.1666666666666658E-005     1.5946652994983918E-028
   4.1866666666666663E-005     2.2055205647913336E-028
   4.2066666666666668E-005     2.7022631568024948E-028
   4.2266666666666660E-005     2.9701347342362392E-028
   4.2466666666666664E-005     2.8891994542533100E-028
   4.2666666666666656E-005     2.3507433863179087E-028
   4.2866666666666661E-005     1.2774978599493548E-028
   4.3066666666666665E-005    -3.5411282450611584E-029
   4.3266666666666657E-005    -2.4924090152372006E-028
   4.3466666666666662E-005    -4.9930682328736700E-028
   4.3666666666666666E-005    -7.6098961743781748E-028
   4.3866666666666658E-005    -9.9977960456306604E-028
   4.4066666666666663E-005    -1.1731421885070831E-027
   4.4266666666666667E-005    -1.2341777973396312E-027
   4.4466666666666659E-005    -1.1371026466437536E-027
   4.4666666666666664E-005    -8.4431536166772012E-028
   4.4866666666666655E-005    -3.3450675535722548E-028
   4.5066666666666660E-005     3.8905783028939466E-028
   4.5266666666666665E-005     1.2912419460338583E-027
   4.5466666666666656E-005     2.3001005769477602E-027
   4.5666666666666661E-005     3.3057455048599604E-027
   4.5866666666666666E-005     4.1643389407633897E-027
   4.6066666666666657E-005     4.7081942088531348E-027
   4.6266666666666662E-005     4.7623702330027589E-027
   4.6466666666666667E-005     4.1673168136434012E-027
   4.6666666666666658E-005     2.8061353957546010E-027
   4.6866666666666663E-005     6.3393250418444303E-028
   4.7066666666666668E-005    -2.2943021796641936E-027
   4.7266666666666659E-005    -5.8016563422185431E-027
   4.7466666666666664E-005    -9.5779177028859826E-027
   4.7666666666666655E-005    -1.3183526648227147E-026
   4.7866666666666660E-005    -1.6072691195000215E-026
   4.8066666666666665E-005    -1.7637925275682832E-026
   4.8266666666666656E-005    -1.7275830416466610E-026
   4.8466666666666661E-005    -1.4471021601257703E-026
   4.8666666666666666E-005    -8.8916518561744566E-027
   4.8866666666666657E-005    -4.8661576347408148E-028
   4.9066666666666662E-005     1.0428409907071341E-026
   4.9266666666666667E-005     2.3110909732126038E-026
   4.9466666666666658E-005     3.6372681521389794E-026
   4.9666666666666663E-005     4.8615855155714384E-026
   4.9866666666666655E-005     5.7933698360398225E-026
   5.0066666666666659E-005     6.2279853562003525E-026
   5.0266666666666664E-005     5.9701510997095225E-026
   5.0466666666666656E-005     4.8622270813545127E-026
   5.0666666666666660E-005     2.8150042261113064E-026
   5.0866666666666665E-005    -1.6241319072768950E-027
   5.1066666666666657E-005    -3.9378001214224789E-026
   5.1266666666666661E-005    -8.2406240563206039E-026
   5.1466666666666666E-005    -1.2660894588864165E-025
   5.1666666666666658E-005    -1.6665728165707799E-025
   5.1866666666666662E-005    -1.9635920128952336E-025
   5.2066666666666667E-005    -2.0922763039140920E-025
   5.2266666666666659E-005    -1.9922821444610231E-025
   5.2466666666666664E-005    -1.6165557071728239E-025
   5.2666666666666655E-005    -9.4057549732973188E-026
   5.2866666666666660E-005     2.8969148740552711E-027
   5.3066666666666665E-005     1.2472894244008025E-025
   5.3266666666666656E-005     2.6276781724398557E-025
   5.3466666666666661E-005     4.0419561384481708E-025
   5.3666666666666666E-005     5.3261176611161020E-025
   5.3866666666666657E-005     6.2916829160685547E-025
   5.4066666666666662E-005     6.7426865284969854E-025
   5.4266666666666667E-005     6.4975041218117031E-025
   5.4466666666666658E-005     5.4140026824145119E-025
   5.4666666666666663E-005     3.4157248252952597E-025
   5.4866666666666668E-005     5.1624906530409624E-026
   5.5066666666666659E-005    -3.1615718375224501E-025
   5.5266666666666664E-005    -7.3748402148958432E-025
   5.5466666666666655E-005    -1.1761400379028498E-024
   5.5666666666666660E-005    -1.5854552111111315E-024
   5.5866666666666665E-005    -1.9112963773801598E-024
   5.6066666666666656E-005    -2.0965593748951829E-024
   5.6266666666666661E-005    -2.0869664318572428E-024
   5.6466666666666666E-005    -1.8377934736752868E-024
   5.6666666666666657E-005    -1.3209750973166539E-024
   5.6866666666666662E-005    -5.3188330236944517E-025
   5.7066666666666667E-005     5.0502165177434477E-025
   5.7266666666666658E-005     1.7325010532118175E-024
   5.7466666666666663E-005     3.0595960348235628E-024
   5.7666666666666654E-005     4.3640763464348847E-024
   5.7866666666666659E-005     5.4987044527451286E-024
   5.8066666666666664E-005     6.3014149944486531E-024
   5.8266666666666655E-005     6.6091508168667277E-024
   5.8466666666666660E-005     6.2746793150793552E-024
   5.8666666666666665E-005     5.1853018480143990E-024
   5.8866666666666656E-005     3.2819838126144182E-024
   5.9066666666666661E-005     5.7711643876339826E-025
   5.9266666666666666E-005    -2.8310717080509931E-024
   5.9466666666666657E-005    -6.7495215152026597E-024
   5.9666666666666662E-005    -1.0888723594273432E-023
   5.9866666666666667E-005    -1.4870157436604529E-023
   6.0066666666666659E-005    -1.8243997199099013E-023
   6.0266666666666663E-005    -2.0517623701134425E-023
   6.0466666666666655E-005    -2.1194665150762169E-023
   6.0666666666666660E-005    -1.9823306197682341E-023
   6.0866666666666664E-005    -1.6051437199127733E-023
   6.1066666666666656E-005    -9.6851916433357540E-024
   6.1266666666666661E-005    -7.4616346359927851E-025
   6.1466666666666665E-005     1.0478352629351125E-023
   6.1666666666666657E-005     2.3398586325490442E-023
   6.1866666666666662E-005     3.7105918611588507E-023
   6.2066666666666666E-005     5.0383757155560803E-023
   6.2266666666666658E-005     6.1751798157872859E-023
   6.2466666666666663E-005     6.9548211458367987E-023
   6.2666666666666668E-005     7.2052005484441544E-023
   6.2866666666666659E-005     6.7644071627119992E-023
   6.3066666666666664E-005     5.5001458593911485E-023
   6.3266666666666655E-005     3.3313826374867653E-023
   6.3466666666666660E-005     2.5058517697448263E-024
   6.3666666666666665E-005    -3.6556401260455171E-023
   6.3866666666666656E-005    -8.1901987804295252E-023
   6.4066666666666661E-005    -1.3036452786773184E-022
   6.4266666666666666E-005    -1.7759557401658428E-022
   6.4466666666666657E-005    -2.1821076560859742E-022
   6.4666666666666662E-005    -2.4609024595881150E-022
   6.4866666666666667E-005    -2.5484526409866947E-022
   6.5066666666666658E-005    -2.3844538861542743E-022
   6.5266666666666663E-005    -1.9198202403421263E-022
   6.5466666666666654E-005    -1.1251967377629112E-022
   6.5666666666666659E-005     3.6979592891416743E-026
   6.5866666666666664E-005     1.4215616824348585E-022
   6.6066666666666655E-005     3.0608426638234745E-022
   6.6266666666666660E-005     4.7956810803430256E-022
   6.6466666666666665E-005     6.4601412396488479E-022
   6.6666666666666656E-005     7.8518741348822550E-022
   6.6866666666666661E-005     8.7451903213741156E-022
   6.7066666666666666E-005     8.9103598720076288E-022
   6.7266666666666657E-005     8.1385994517278912E-022
   6.7466666666666662E-005     6.2713432223111756E-022
   6.7666666666666667E-005     3.2315453479550803E-022
   6.7866666666666658E-005    -9.4608328176871133E-023
   6.8066666666666663E-005    -6.0897789963655075E-022
   6.8266666666666655E-005    -1.1874589667917855E-021
   6.8466666666666659E-005    -1.7819695865669153E-021
   6.8666666666666664E-005    -2.3303053124166516E-021
   6.8866666666666656E-005    -2.7596078094154465E-021
   6.9066666666666660E-005    -2.9919498380051641E-021
   6.9266666666666665E-005    -2.9519277057308089E-021
   6.9466666666666657E-005    -2.5758822308072177E-021
   6.9666666666666661E-005    -1.8220852209466446E-021
   6.9866666666666666E-005    -6.8094619751261748E-022
   7.0066666666666658E-005     8.1593804461085645E-022
   7.0266666666666662E-005     2.5892330389849229E-021
   7.0466666666666654E-005     4.5091792193928459E-021
   7.0666666666666659E-005     6.3980332234606134E-021
   7.0866666666666664E-005     8.0385767357072686E-021
   7.1066666666666655E-005     9.1891865833556640E-021
   7.1266666666666660E-005     9.6052883198318139E-021
   7.1466666666666665E-005     9.0662363634985999E-021
   7.1666666666666656E-005     7.4058037619433761E-021
   7.1866666666666661E-005     4.5436598877979494E-021
   7.2066666666666666E-005     5.1442157317055178E-022
   7.2266666666666657E-005    -4.5095621135435784E-021
   7.2466666666666662E-005    -1.0205757628853523E-020
   7.2666666666666667E-005    -1.6103072335803577E-020
   7.2866666666666658E-005    -2.1600584157077756E-020
   7.3066666666666663E-005    -2.6005080196439678E-020
   7.3266666666666654E-005    -2.8587371663355440E-020
   7.3466666666666659E-005    -2.8655184317713449E-020
   7.3666666666666664E-005    -2.5638080191930360E-020
   7.3866666666666655E-005    -1.9177487799574373E-020
   7.4066666666666660E-005    -9.2128517036929232E-021
   7.4266666666666665E-005     3.9465841195509815E-021
   7.4466666666666656E-005     1.9575418219762065E-020
   7.4666666666666661E-005     3.6521917512337094E-020
   7.4866666666666666E-005     5.3242640118537761E-020
   7.5066666666666657E-005     6.7887611138673426E-020
   7.5266666666666662E-005     7.8437123704353820E-020
   7.5466666666666653E-005     8.2885953070256890E-020