  -3.3333333333333335E-005     0.0000000000000000     
  -3.3133333333333337E-005     0.0000000000000000     
  -3.2933333333333332E-005     0.0000000000000000     
  -3.2733333333333334E-005     0.0000000000000000     
  -3.2533333333333336E-005     0.0000000000000000     
  -3.2333333333333338E-005     0.0000000000000000     
  -3.2133333333333333E-005     0.0000000000000000     
  -3.1933333333333335E-005     0.0000000000000000     
  -3.1733333333333337E-005     0.0000000000000000     
  -3.1533333333333332E-005     0.0000000000000000     
  -3.1333333333333334E-005     0.0000000000000000     
  -3.1133333333333336E-005     0.0000000000000000     
  -3.0933333333333338E-005     0.0000000000000000     
  -3.0733333333333333E-005     0.0000000000000000     
  -3.0533333333333335E-005     0.0000000000000000     
  -3.0333333333333337E-005     0.0000000000000000     
  -3.0133333333333335E-005     0.0000000000000000     
  -2.9933333333333334E-005     0.0000000000000000     
  -2.9733333333333336E-005     0.0000000000000000     
  -2.9533333333333334E-005     0.0000000000000000     
  -2.9333333333333336E-005     0.0000000000000000     
  -2.9133333333333334E-005     0.0000000000000000     
  -2.8933333333333336E-005     0.0000000000000000     
  -2.8733333333333335E-005     0.0000000000000000     
  -2.8533333333333333E-005     0.0000000000000000     
  -2.8333333333333335E-005     0.0000000000000000     
  -2.8133333333333337E-005     0.0000000000000000     
  -2.7933333333333336E-005     0.0000000000000000     
  -2.7733333333333334E-005     0.0000000000000000     
  -2.7533333333333336E-005     0.0000000000000000     
  -2.7333333333333335E-005     0.0000000000000000     
  -2.7133333333333333E-005     0.0000000000000000     
  -2.6933333333333335E-005     0.0000000000000000     
  -2.6733333333333337E-005     0.0000000000000000     
  -2.6533333333333336E-005     0.0000000000000000     
  -2.6333333333333334E-005     0.0000000000000000     
  -2.6133333333333336E-005     0.0000000000000000     
  -2.5933333333333335E-005     0.0000000000000000     
  -2.5733333333333333E-005     0.0000000000000000     
  -2.5533333333333335E-005     0.0000000000000000     
  -2.5333333333333337E-005     0.0000000000000000     
  -2.5133333333333336E-005     0.0000000000000000     
  -2.4933333333333334E-005     0.0000000000000000     
  -2.4733333333333336E-005     0.0000000000000000     
  -2.4533333333333334E-005     0.0000000000000000     
  -2.4333333333333333E-005     0.0000000000000000     
  -2.4133333333333335E-005     0.0000000000000000     
  -2.3933333333333337E-005     0.0000000000000000     
  -2.3733333333333335E-005     0.0000000000000000     
  -2.3533333333333334E-005     0.0000000000000000     
  -2.3333333333333336E-005     0.0000000000000000     
  -2.3133333333333338E-005     0.0000000000000000     
  -2.2933333333333336E-005     0.0000000000000000     
  -2.2733333333333335E-005     0.0000000000000000     
  -2.2533333333333337E-005     0.0000000000000000     
  -2.2333333333333335E-005     0.0000000000000000     
  -2.2133333333333334E-005     0.0000000000000000     
  -2.1933333333333336E-005     0.0000000000000000     
  -2.1733333333333338E-005     0.0000000000000000     
  -2.1533333333333336E-005     0.0000000000000000     
  -2.1333333333333335E-005     0.0000000000000000     
  -2.1133333333333337E-005     0.0000000000000000     
  -2.0933333333333335E-005     0.0000000000000000     
  -2.0733333333333334E-005     0.0000000000000000     
  -2.0533333333333336E-005     0.0000000000000000     
  -2.0333333333333337E-005     0.0000000000000000     
  -2.0133333333333336E-005     0.0000000000000000     
  -1.9933333333333334E-005     0.0000000000000000     
  -1.9733333333333336E-005     0.0000000000000000     
  -1.9533333333333335E-005     0.0000000000000000     
  -1.9333333333333333E-005     0.0000000000000000     
  -1.9133333333333335E-005     0.0000000000000000     
  -1.8933333333333337E-005     0.0000000000000000     
  -1.8733333333333336E-005     0.0000000000000000     
  -1.8533333333333334E-005     0.0000000000000000     
  -1.8333333333333336E-005     0.0000000000000000     
  -1.8133333333333335E-005     0.0000000000000000     
  -1.7933333333333337E-005     0.0000000000000000     
  -1.7733333333333335E-005     0.0000000000000000     
  -1.7533333333333337E-005     0.0000000000000000     
  -1.7333333333333336E-005     0.0000000000000000     
  -1.7133333333333334E-005     0.0000000000000000     
  -1.6933333333333336E-005     0.0000000000000000     
  -1.6733333333333335E-005     0.0000000000000000     
  -1.6533333333333337E-005     0.0000000000000000     
  -1.6333333333333335E-005     0.0000000000000000     
  -1.6133333333333337E-005     0.0000000000000000     
  -1.5933333333333336E-005     0.0000000000000000     
  -1.5733333333333334E-005     0.0000000000000000     
  -1.5533333333333336E-005     0.0000000000000000     
  -1.5333333333333334E-005     0.0000000000000000     
  -1.5133333333333336E-005     0.0000000000000000     
  -1.4933333333333335E-005     0.0000000000000000     
  -1.4733333333333337E-005     0.0000000000000000     
  -1.4533333333333335E-005     0.0000000000000000     
  -1.4333333333333337E-005     0.0000000000000000     
  -1.4133333333333336E-005     0.0000000000000000     
  -1.3933333333333334E-005     0.0000000000000000     
  -1.3733333333333336E-005     0.0000000000000000     
  -1.3533333333333335E-005     0.0000000000000000     
  -1.3333333333333337E-005     0.0000000000000000     
  -1.3133333333333335E-005     0.0000000000000000     
  -1.2933333333333337E-005     0.0000000000000000     
  -1.2733333333333336E-005     0.0000000000000000     
  -1.2533333333333338E-005     0.0000000000000000     
  -1.2333333333333336E-005     0.0000000000000000     
  -1.2133333333333335E-005     0.0000000000000000     
  -1.1933333333333337E-005     0.0000000000000000     
  -1.1733333333333335E-005     0.0000000000000000     
  -1.1533333333333337E-005     0.0000000000000000     
  -1.1333333333333336E-005     0.0000000000000000     
  -1.1133333333333337E-005     0.0000000000000000     
  -1.0933333333333336E-005     0.0000000000000000     
  -1.0733333333333334E-005     0.0000000000000000     
  -1.0533333333333336E-005     0.0000000000000000     
  -1.0333333333333335E-005     0.0000000000000000     
  -1.0133333333333337E-005     0.0000000000000000     
  -9.9333333333333354E-006     0.0000000000000000     
  -9.7333333333333373E-006     0.0000000000000000     
  -9.5333333333333358E-006     0.0000000000000000     
  -9.3333333333333343E-006     0.0000000000000000     
  -9.1333333333333362E-006     0.0000000000000000     
  -8.9333333333333348E-006     0.0000000000000000     
  -8.7333333333333367E-006     0.0000000000000000     
  -8.5333333333333352E-006     0.0000000000000000     
  -8.3333333333333371E-006     0.0000000000000000     
  -8.1333333333333356E-006     0.0000000000000000     
  -7.9333333333333376E-006     0.0000000000000000     
  -7.7333333333333361E-006     0.0000000000000000     
  -7.5333333333333346E-006     0.0000000000000000     
  -7.3333333333333365E-006     0.0000000000000000     
  -7.1333333333333351E-006     0.0000000000000000     
  -6.9333333333333370E-006     0.0000000000000000     
  -6.7333333333333355E-006     0.0000000000000000     
  -6.5333333333333374E-006     0.0000000000000000     
  -6.3333333333333359E-006     0.0000000000000000     
  -6.1333333333333379E-006     0.0000000000000000     
  -5.9333333333333364E-006     0.0000000000000000     
  -5.7333333333333349E-006     0.0000000000000000     
  -5.5333333333333368E-006     0.0000000000000000     
  -5.3333333333333354E-006     0.0000000000000000     
  -5.1333333333333373E-006     0.0000000000000000     
  -4.9333333333333358E-006     0.0000000000000000     
  -4.7333333333333377E-006     0.0000000000000000     
  -4.5333333333333362E-006     0.0000000000000000     
  -4.3333333333333348E-006     0.0000000000000000     
  -4.1333333333333367E-006     0.0000000000000000     
  -3.9333333333333352E-006     0.0000000000000000     
  -3.7333333333333371E-006     0.0000000000000000     
  -3.5333333333333356E-006     0.0000000000000000     
  -3.3333333333333376E-006     0.0000000000000000     
  -3.1333333333333361E-006     0.0000000000000000     
  -2.9333333333333346E-006     0.0000000000000000     
  -2.7333333333333365E-006     0.0000000000000000     
  -2.5333333333333384E-006     0.0000000000000000     
  -2.3333333333333336E-006     0.0000000000000000     
  -2.1333333333333355E-006     0.0000000000000000     
  -1.9333333333333374E-006     0.0000000000000000     
  -1.7333333333333393E-006     0.0000000000000000     
  -1.5333333333333345E-006     0.0000000000000000     
  -1.3333333333333364E-006     0.0000000000000000     
  -1.1333333333333383E-006     0.0000000000000000     
  -9.3333333333333343E-007     0.0000000000000000     
  -7.3333333333333535E-007     0.0000000000000000     
  -5.3333333333333726E-007     0.0000000000000000     
  -3.3333333333333918E-007     0.0000000000000000     
  -1.3333333333333432E-007     0.0000000000000000     
   6.6666666666663770E-008     0.0000000000000000     
   2.6666666666666185E-007     0.0000000000000000     
   4.6666666666666672E-007     0.0000000000000000     
   6.6666666666666480E-007     0.0000000000000000     
   8.6666666666666289E-007     0.0000000000000000     
   1.0666666666666610E-006     0.0000000000000000     
   1.2666666666666658E-006     0.0000000000000000     
   1.4666666666666639E-006     0.0000000000000000     
   1.6666666666666620E-006     0.0000000000000000     
   1.8666666666666669E-006     0.0000000000000000     
   2.0666666666666649E-006     0.0000000000000000     
   2.2666666666666630E-006     0.0000000000000000     
   2.4666666666666611E-006     0.0000000000000000     
   2.6666666666666660E-006     0.0000000000000000     
   2.8666666666666641E-006     0.0000000000000000     
   3.0666666666666622E-006     0.0000000000000000     
   3.2666666666666602E-006     0.0000000000000000     
   3.4666666666666651E-006     0.0000000000000000     
   3.6666666666666632E-006     0.0000000000000000     
   3.8666666666666613E-006     0.0000000000000000     
   4.0666666666666661E-006     0.0000000000000000     
   4.2666666666666642E-006     0.0000000000000000     
   4.4666666666666623E-006     0.0000000000000000     
   4.6666666666666604E-006     0.0000000000000000     
   4.8666666666666652E-006     0.0000000000000000     
   5.0666666666666633E-006     0.0000000000000000     
   5.2666666666666614E-006     0.0000000000000000     
   5.4666666666666663E-006     0.0000000000000000     
   5.6666666666666644E-006     0.0000000000000000     
   5.8666666666666624E-006     0.0000000000000000     
   6.0666666666666605E-006     0.0000000000000000     
   6.2666666666666654E-006     0.0000000000000000     
   6.4666666666666635E-006     0.0000000000000000     
   6.6666666666666616E-006     0.0000000000000000     
   6.8666666666666664E-006     0.0000000000000000     
   7.0666666666666645E-006     0.0000000000000000     
   7.2666666666666626E-006     0.0000000000000000     
   7.4666666666666607E-006     0.0000000000000000     
   7.6666666666666655E-006     0.0000000000000000     
   7.8666666666666636E-006     0.0000000000000000     
   8.0666666666666617E-006     0.0000000000000000     
   8.2666666666666598E-006     0.0000000000000000     
   8.4666666666666647E-006     0.0000000000000000     
   8.6666666666666627E-006     0.0000000000000000     
   8.8666666666666608E-006     0.0000000000000000     
   9.0666666666666657E-006     0.0000000000000000     
   9.2666666666666638E-006     0.0000000000000000     
   9.4666666666666619E-006    -1.1537849417559080E-036
   9.6666666666666599E-006    -2.3756456355319785E-036
   9.8666666666666648E-006    -3.4852869403270524E-036
   1.0066666666666663E-005    -6.3744746973462800E-036
   1.0266666666666661E-005    -3.0682655395976830E-035
   1.0466666666666666E-005    -5.9943840804390702E-035
   1.0666666666666664E-005    -9.0848563039655320E-035
   1.0866666666666662E-005    -1.2591792171075166E-034
   1.1066666666666660E-005    -1.4583847575704742E-034
   1.1266666666666665E-005    -1.5225483820261395E-034
   1.1466666666666663E-005    -1.1439177486176940E-034
   1.1666666666666661E-005    -3.7876830055690486E-035
   1.1866666666666666E-005     9.3555724233711644E-035
   1.2066666666666664E-005     2.7168870322769362E-034
   1.2266666666666662E-005     4.4994893178103952E-034
   1.2466666666666660E-005     5.8331000566102617E-034
   1.2666666666666665E-005     6.2709946611656033E-034
   1.2866666666666663E-005     5.5494495963369974E-034
   1.3066666666666661E-005     3.1078924987926711E-034
   1.3266666666666666E-005    -1.1090646854989238E-034
   1.3466666666666664E-005    -6.9456678071101321E-034
   1.3666666666666662E-005    -1.3769628786226963E-033
   1.3866666666666660E-005    -2.0938256188441909E-033
   1.4066666666666665E-005    -2.6689450461916262E-033
   1.4266666666666663E-005    -2.9333971123220701E-033
   1.4466666666666661E-005    -2.6790283999987813E-033
   1.4666666666666666E-005    -1.7177295073764617E-033
   1.4866666666666664E-005     9.6927338201345074E-035
   1.5066666666666662E-005     2.7920742223494222E-033
   1.5266666666666661E-005     6.1983229371683809E-033
   1.5466666666666665E-005     9.8860882226718769E-033
   1.5666666666666663E-005     1.3125938732634233E-032
   1.5866666666666662E-005     1.4883067688243388E-032
   1.6066666666666660E-005     1.3935094677126570E-032
   1.6266666666666665E-005     9.0914018789541928E-033
   1.6466666666666663E-005    -4.6049219775295386E-034
   1.6666666666666661E-005    -1.4716742584441727E-032
   1.6866666666666666E-005    -3.2402939652062036E-032
   1.7066666666666664E-005    -5.0642665254541053E-032
   1.7266666666666662E-005    -6.4907982743436497E-032
   1.7466666666666660E-005    -6.9424837418886399E-032
   1.7666666666666665E-005    -5.8157318520703739E-032
   1.7866666666666663E-005    -2.6364381090849790E-032
   1.8066666666666661E-005     2.7427227818032777E-032
   1.8266666666666666E-005     9.9413778933363909E-032
   1.8466666666666664E-005     1.7903619441484277E-031
   1.8666666666666662E-005     2.4870822654076358E-031
   1.8866666666666660E-005     2.8539152609856946E-031
   1.9066666666666665E-005     2.6440958670334108E-031
   1.9266666666666663E-005     1.6542384052794209E-031
   1.9466666666666661E-005    -2.0151523166033491E-032
   1.9666666666666666E-005    -2.8173216516468565E-031
   1.9866666666666664E-005    -5.8417668185018211E-031
   2.0066666666666662E-005    -8.6672555697993206E-031
   2.0266666666666660E-005    -1.0483072726565370E-030
   2.0466666666666665E-005    -1.0403196474833774E-030
   2.0666666666666663E-005    -7.6643552929263470E-031
   2.0866666666666661E-005    -1.8696531523416188E-031
   2.1066666666666659E-005     6.7677460364411665E-031
   2.1266666666666664E-005     1.7242642024302217E-030
   2.1466666666666662E-005     2.7705271493513566E-030
   2.1666666666666660E-005     3.5596993254764661E-030
   2.1866666666666665E-005     3.8006500886379612E-030
   2.2066666666666663E-005     3.2236550189944668E-030
   2.2266666666666661E-005     1.6518319332444175E-030
   2.2466666666666659E-005    -9.2431763316457115E-031
   2.2666666666666664E-005    -4.2852005209508682E-030
   2.2866666666666662E-005    -7.9511348192444804E-030
   2.3066666666666660E-005    -1.1198588990905243E-029
   2.3266666666666665E-005    -1.3135058887839692E-029
   2.3466666666666663E-005    -1.2835209651091828E-029
   2.3666666666666661E-005    -9.5294073252799772E-030
   2.3866666666666660E-005    -2.8229746980195089E-030
   2.4066666666666664E-005     7.0877742794129862E-030
   2.4266666666666662E-005     1.9246251268499135E-029
   2.4466666666666661E-005     3.1861600970111470E-029
   2.4666666666666665E-005     4.2376967817878110E-029
   2.4866666666666663E-005     4.7717099098974433E-029
   2.5066666666666662E-005     4.4732945881784863E-029
   2.5266666666666660E-005     3.0830719883988359E-029
   2.5466666666666665E-005     4.7327147938117396E-030
   2.5666666666666663E-005    -3.2731004867459863E-029
   2.5866666666666661E-005    -7.7951232090033464E-029
   2.6066666666666666E-005    -1.2418247021838207E-028
   2.6266666666666664E-005    -1.6171492075222761E-028
   2.6466666666666662E-005    -1.7877300264028688E-028
   2.6666666666666660E-005    -1.6326339250163925E-028
   2.6866666666666665E-005    -1.0535540963934097E-028
   2.7066666666666663E-005    -6.6849531481263108E-031
   2.7266666666666661E-005     1.4641150548825093E-028
   2.7466666666666666E-005     3.2002142698537590E-028
   2.7666666666666664E-005     4.9163969617876142E-028
   2.7866666666666662E-005     6.2140182618727635E-028
   2.8066666666666667E-005     6.6269154937550265E-028
   2.8266666666666658E-005     5.7031094921556620E-028
   2.8466666666666663E-005     3.1176523012915517E-028
   2.8666666666666668E-005    -1.1978788327127927E-028
   2.8866666666666659E-005    -6.9341696903978163E-028
   2.9066666666666664E-005    -1.3324585801806951E-027
   2.9266666666666669E-005    -1.9144001721821672E-027
   2.9466666666666660E-005    -2.2818287017863752E-027
   2.9666666666666665E-005    -2.2662032469615727E-027
   2.9866666666666656E-005    -1.7237184706202535E-027
   3.0066666666666661E-005    -5.7922781226508466E-028
   3.0266666666666666E-005     1.1293729268119554E-027
   3.0466666666666657E-005     3.2169470381000870E-027
   3.0666666666666662E-005     5.3392933330516439E-027
   3.0866666666666667E-005     7.0150103109239789E-027
   3.1066666666666658E-005     7.6883462343608667E-027
   3.1266666666666663E-005     6.8331054573046267E-027
   3.1466666666666668E-005     4.0877420105731872E-027
   3.1666666666666659E-005    -5.9925748368671192E-028
   3.1866666666666664E-005    -6.8445816886572414E-027
   3.2066666666666656E-005    -1.3762820182851584E-026
   3.2266666666666660E-005    -1.9993035611853141E-026
   3.2466666666666665E-005    -2.3846014080739313E-026
   3.2666666666666657E-005    -2.3580066266578768E-026
   3.2866666666666661E-005    -1.7785867510290881E-026
   3.3066666666666666E-005    -5.8289001620258560E-027
   3.3266666666666658E-005     1.1732863058448216E-026
   3.3466666666666662E-005     3.2860333807675637E-026
   3.3666666666666667E-005     5.3983662266778670E-026
   3.3866666666666659E-005     7.0283691773158310E-026
   3.4066666666666664E-005     7.6352306272386223E-026
   3.4266666666666668E-005     6.7209852115133883E-026
   3.4466666666666660E-005     3.9570874624063415E-026
   3.4666666666666665E-005    -6.8416280824945291E-027
   3.4866666666666656E-005    -6.8208734910418345E-026
   3.5066666666666661E-005    -1.3606945890211778E-025
   3.5266666666666666E-005    -1.9761318198003366E-025
   3.5466666666666657E-005    -2.3702075315225260E-025
   3.5666666666666662E-005    -2.3790385828374423E-025
   3.5866666666666667E-005    -1.8667203867721591E-025
   3.6066666666666658E-005    -7.6403915031919979E-026
   3.6266666666666663E-005     8.9442559363034718E-026
   3.6466666666666668E-005     2.9431936918014133E-025
   3.6666666666666659E-005     5.0776856405393748E-025
   3.6866666666666664E-005     6.8726533347844102E-025
   3.7066666666666669E-005     7.8318115600722710E-025
   3.7266666666666660E-005     7.4681767580873961E-025
   3.7466666666666665E-005     5.4081567300687584E-025
   3.7666666666666656E-005     1.5054169152812452E-025
   3.7866666666666661E-005    -4.0556739365518984E-025
   3.8066666666666666E-005    -1.0691253368680567E-024
   3.8266666666666657E-005    -1.7408347770297985E-024
   3.8466666666666662E-005    -2.2874451757273950E-024
   3.8666666666666667E-005    -2.5576497572882221E-024
   3.8866666666666658E-005    -2.4064667341701046E-024
   3.9066666666666663E-005    -1.7258493780589939E-024
   3.9266666666666668E-005    -4.7737375337577190E-025
   3.9466666666666659E-005     1.2787382025521499E-024
   3.9666666666666664E-005     3.3649705993370845E-024
   3.9866666666666655E-005     5.4848481109449216E-024
   4.0066666666666660E-005     7.2434967477211947E-024
   4.0266666666666665E-005     8.1928987357637346E-024
   4.0466666666666656E-005     7.9003394138707545E-024
   4.0666666666666661E-005     6.0337422619631329E-024
   4.0866666666666666E-005     2.4527527533534948E-024
   4.1066666666666657E-005    -2.7096742977769842E-024
   4.1266666666666662E-005    -8.9927082414883088E-024
   4.1466666666666667E-005    -1.5597289975991996E-023
   4.1666666666666658E-005    -2.1433652139720685E-023
   4.1866666666666663E-005    -2.5233446814320117E-023
   4.2066666666666668E-005    -2.5723411477996509E-023
   4.2266666666666660E-005    -2.1845977113105225E-023
   4.2466666666666664E-005    -1.3000425351459559E-023
   4.2666666666666656E-005     7.3152043026133978E-025
   4.2866666666666661E-005     1.8417600240789191E-023
   4.3066666666666665E-005     3.8206262822957846E-023
   4.3266666666666657E-005     5.7391997437544272E-023
   4.3466666666666662E-005     7.2635339724859894E-023
   4.3666666666666666E-005     8.0337670318354743E-023
   4.3866666666666658E-005     7.7146847863593344E-023
   4.4066666666666663E-005     6.0544765242237809E-023
   4.4266666666666667E-005     2.9445811009184708E-023
   4.4466666666666659E-005    -1.5279625155790358E-023
   4.4666666666666664E-005    -7.0448226020578260E-023
   4.4866666666666655E-005    -1.3045863581828108E-022
   4.5066666666666660E-005    -1.8750515635554924E-022
   4.5266666666666665E-005    -2.3214825910784639E-022
   4.5466666666666656E-005    -2.5424211998319921E-022
   4.5666666666666661E-005    -2.4417726457453779E-022
   4.5866666666666666E-005    -1.9435227968625037E-022
   4.6066666666666657E-005    -1.0074671993765998E-022
   4.6266666666666662E-005     3.5570255709169247E-023
   4.6466666666666667E-005     2.0719039138443437E-022
   4.6666666666666658E-005     3.9959222825974390E-022
   4.6866666666666663E-005     5.9106588508308314E-022
   4.7066666666666668E-005     7.5355093574524204E-022
   4.7266666666666659E-005     8.5456471349831192E-022
   4.7466666666666664E-005     8.6033084495337059E-022
   4.7666666666666655E-005     7.4010319233950324E-022
   4.7866666666666660E-005     4.7151955585583707E-022
   4.8066666666666665E-005     4.6602330318278537E-023
   4.8266666666666656E-005    -5.2222506097564493E-022
   4.8466666666666661E-005    -1.1970021390174934E-021
   4.8666666666666666E-005    -1.9111034661789534E-021
   4.8866666666666657E-005    -2.5693839354579180E-021
   4.9066666666666662E-005    -3.0528346527846501E-021
   4.9266666666666667E-005    -3.2287224123611905E-021
   4.9466666666666658E-005    -2.9666384343784682E-021
   4.9666666666666663E-005    -2.1600159661558326E-021
   4.9866666666666655E-005    -7.5155457491873009E-022
   5.0066666666666659E-005     1.2403051248640011E-021
   5.0266666666666664E-005     3.6979799947682841E-021
   5.0466666666666656E-005     6.3895376585170390E-021
   5.0666666666666660E-005     8.9672331839336594E-021
   5.0866666666666665E-005     1.0984918145025860E-020
   5.1066666666666657E-005     1.1937932800469950E-020
   5.1266666666666661E-005     1.1326370870186934E-020
   5.1466666666666666E-005     8.7388295528795886E-021
   5.1666666666666658E-005     3.9491205913511930E-021
   5.1866666666666662E-005    -2.9863330473857946E-021
   5.2066666666666667E-005    -1.1646853274350082E-020
   5.2266666666666659E-005    -2.1200643946495501E-020
   5.2466666666666664E-005    -3.0411712041992607E-020
   5.2666666666666655E-005    -3.7716253225764293E-020
   5.2866666666666660E-005    -4.1377002418928805E-020
   5.3066666666666665E-005    -3.9713151234998265E-020
   5.3266666666666656E-005    -3.1389862809859365E-020
   5.3466666666666661E-005    -1.5736380908436832E-020
   5.3666666666666666E-005     6.9520628842153625E-021
   5.3866666666666657E-005     3.5183477888915207E-020
   5.4066666666666662E-005     6.6167805709947647E-020
   5.4266666666666667E-005     9.5897807836097187E-020
   5.4466666666666658E-005     1.1944874493708147E-019
   5.4666666666666663E-005     1.3150664719914645E-019
   5.4866666666666668E-005     1.2709966154001120E-019
   5.5066666666666659E-005     1.0246645554272932E-019
   5.5266666666666664E-005     5.5956790960560438E-020
   5.5466666666666655E-005    -1.1172985412108034E-020
   5.5666666666666660E-005    -9.4222540913478561E-020
   5.5866666666666665E-005    -1.8491669122532390E-019
   5.6066666666666656E-005    -2.7179836609391233E-019
   5.6266666666666661E-005    -3.4120554032958835E-019
   5.6466666666666666E-005    -3.7881180761445150E-019
   5.6666666666666657E-005    -3.7161593082130543E-019
   5.6866666666666662E-005    -3.1016876731901548E-019
   5.7066666666666667E-005    -1.9074439836061019E-019
   5.7266666666666658E-005    -1.7109355322432808E-020
   5.7466666666666663E-005     1.9846066223193161E-019
   5.7666666666666654E-005     4.3521895964445584E-019
   5.7866666666666659E-005     6.6523415825163023E-019
   5.8066666666666664E-005     8.5596143138862115E-019
   5.8266666666666655E-005     9.7393837644672643E-019
   5.8466666666666660E-005     9.8924979977781268E-019
   5.8666666666666665E-005     8.8022418971844999E-019
   5.8866666666666656E-005     6.3770905128468053E-019
   5.9066666666666661E-005     2.6824192889963473E-019
   5.9266666666666666E-005    -2.0449282515018628E-019
   5.9466666666666657E-005    -7.4034303675084598E-019
   5.9666666666666662E-005    -1.2856481553975341E-018
   5.9866666666666667E-005    -1.7782840478047684E-018
   6.0066666666666659E-005    -2.1542558341835956E-018
   6.0266666666666663E-005    -2.3550131892356748E-018
   6.0466666666666655E-005    -2.3344862887448652E-018
   6.0666666666666660E-005    -2.0648359556053882E-018
   6.0866666666666664E-005    -1.5400911865655299E-018
   6.1066666666666656E-005    -7.7719465682311934E-019
   6.1266666666666661E-005     1.8552700834572025E-019
   6.1466666666666665E-005     1.2919386571608467E-018
   6.1666666666666657E-005     2.4727234719438083E-018
   6.1866666666666662E-005     3.6498074806662077E-018
   6.2066666666666666E-005     4.7393532399088047E-018
   6.2266666666666658E-005     5.6524803996479296E-018
   6.2466666666666663E-005     6.2935966595745044E-018
   6.2666666666666668E-005     6.5572352508170991E-018
   6.2866666666666659E-005     6.3253632902286846E-018
   6.3066666666666664E-005     5.4680592413083133E-018
   6.3266666666666655E-005     3.8509347922472513E-018
   6.3466666666666660E-005     1.3524235511167960E-018
   6.3666666666666665E-005    -2.1071292867349182E-018
   6.3866666666666656E-005    -6.5248445123907476E-018
   6.4066666666666661E-005    -1.1766479604624921E-017
   6.4266666666666666E-005    -1.7516379960145364E-017
   6.4466666666666657E-005    -2.3236699509780299E-017
   6.4666666666666662E-005    -2.8149191164473497E-017
   6.4866666666666667E-005    -3.1253887862238178E-017
   6.5066666666666658E-005    -3.1397562517193739E-017
   6.5266666666666663E-005    -2.7400328012316990E-017
   6.5466666666666654E-005    -1.8240833012425431E-017
   6.5666666666666659E-005    -3.2897827025216372E-018
   6.5866666666666664E-005     1.7431428511236168E-017
   6.6066666666666655E-005     4.3003062021267877E-017
   6.6266666666666660E-005     7.1417582947746333E-017
   6.6466666666666665E-005     9.9501919843473222E-017
   6.6666666666666656E-005     1.2300417907146877E-016
   6.6866666666666661E-005     1.3688719466075456E-016
   6.7066666666666666E-005     1.3585028074952749E-016
   6.7266666666666657E-005     1.1506967734740292E-016
   6.7466666666666662E-005     7.1108535036006721E-017
   6.7666666666666667E-005     2.9041043652448064E-018
   6.7866666666666658E-005    -8.7301746962144912E-017
   6.8066666666666663E-005    -1.9325468296679669E-016
   6.8266666666666655E-005    -3.0438327482930295E-016
   6.8466666666666659E-005    -4.0606833606754043E-016
   6.8666666666666664E-005    -4.8061702924437149E-016
   6.8866666666666656E-005    -5.0899909160361336E-016
   6.9066666666666660E-005    -4.7330247622835698E-016
   6.9266666666666665E-005    -3.5973814848179236E-016
   6.9466666666666657E-005    -1.6189537920729475E-016
   6.9666666666666661E-005     1.1617796701932597E-016
   6.9866666666666666E-005     4.5758334467233008E-016
   7.0066666666666658E-005     8.3142001245403545E-016
   7.0266666666666662E-005     1.1933869428480703E-015
   7.0466666666666654E-005     1.4885292205717268E-015
   7.0666666666666659E-005     1.6562984953355443E-015
   7.0866666666666664E-005     1.6378033191740099E-015
   7.1066666666666655E-005     1.3847623905771547E-015
   7.1266666666666660E-005     8.6930049052555023E-016
   7.1466666666666665E-005     9.3376879018089567E-017
   7.1666666666666656E-005    -9.0361580692207167E-016
   7.1866666666666661E-005    -2.0406527182837472E-015
   7.2066666666666666E-005    -3.1957460427402794E-015
   7.2266666666666657E-005    -4.2126201073473812E-015
   7.2466666666666662E-005    -4.9139455999820496E-015
   7.2666666666666667E-005    -5.1208808311939587E-015
   7.2866666666666658E-005    -4.6777148872564032E-015
   7.3066666666666663E-005    -3.4793890011720115E-015
   7.3266666666666654E-005    -1.4987268619819582E-015
   7.3466666666666659E-005     1.1904939018167232E-015
   7.3666666666666664E-005     4.3988563944272370E-015
   7.3866666666666655E-005     7.8190229695095960E-015
   7.4066666666666660E-005     1.1039119515417542E-014
   7.4266666666666665E-005     1.3573628440850805E-014
   7.4466666666666656E-005     1.4911638953783377E-014
   7.4666666666666661E-005     1.4579913746584280E-014
   7.4866666666666666E-005     1.2215635573659556E-014
   7.5066666666666657E-005     7.6412087310242897E-015
   7.5266666666666662E-005     9.3153877742390171E-016
   7.5466666666666653E-005    -7.5368949295040281E-015