  -3.3333333333333335E-005     0.0000000000000000     
  -3.3133333333333337E-005     0.0000000000000000     
  -3.2933333333333332E-005     0.0000000000000000     
  -3.2733333333333334E-005     0.0000000000000000     
  -3.2533333333333336E-005     0.0000000000000000     
  -3.2333333333333338E-005     0.0000000000000000     
  -3.2133333333333333E-005     0.0000000000000000     
  -3.1933333333333335E-005     0.0000000000000000     
  -3.1733333333333337E-005     0.0000000000000000     
  -3.1533333333333332E-005     0.0000000000000000     
  -3.1333333333333334E-005     0.0000000000000000     
  -3.1133333333333336E-005     0.0000000000000000     
  -3.0933333333333338E-005     0.0000000000000000     
  -3.0733333333333333E-005     0.0000000000000000     
  -3.0533333333333335E-005     0.0000000000000000     
  -3.0333333333333337E-005     0.0000000000000000     
  -3.0133333333333335E-005     0.0000000000000000     
  -2.9933333333333334E-005     0.0000000000000000     
  -2.9733333333333336E-005     0.0000000000000000     
  -2.9533333333333334E-005     0.0000000000000000     
  -2.9333333333333336E-005     0.0000000000000000     
  -2.9133333333333334E-005     0.0000000000000000     
  -2.8933333333333336E-005     0.0000000000000000     
  -2.8733333333333335E-005     0.0000000000000000     
  -2.8533333333333333E-005     0.0000000000000000     
  -2.8333333333333335E-005     0.0000000000000000     
  -2.8133333333333337E-005     0.0000000000000000     
  -2.7933333333333336E-005     0.0000000000000000     
  -2.7733333333333334E-005     0.0000000000000000     
  -2.7533333333333336E-005     0.0000000000000000     
  -2.7333333333333335E-005     0.0000000000000000     
  -2.7133333333333333E-005     0.0000000000000000     
  -2.6933333333333335E-005     0.0000000000000000     
  -2.6733333333333337E-005     0.0000000000000000     
  -2.6533333333333336E-005     0.0000000000000000     
  -2.6333333333333334E-005     0.0000000000000000     
  -2.6133333333333336E-005     0.0000000000000000     
  -2.5933333333333335E-005     0.0000000000000000     
  -2.5733333333333333E-005     0.0000000000000000     
  -2.5533333333333335E-005     0.0000000000000000     
  -2.5333333333333337E-005     0.0000000000000000     
  -2.5133333333333336E-005     0.0000000000000000     
  -2.4933333333333334E-005     0.0000000000000000     
  -2.4733333333333336E-005     0.0000000000000000     
  -2.4533333333333334E-005     0.0000000000000000     
  -2.4333333333333333E-005     0.0000000000000000     
  -2.4133333333333335E-005     0.0000000000000000     
  -2.3933333333333337E-005     0.0000000000000000     
  -2.3733333333333335E-005     0.0000000000000000     
  -2.3533333333333334E-005     0.0000000000000000     
  -2.3333333333333336E-005     0.0000000000000000     
  -2.3133333333333338E-005     0.0000000000000000     
  -2.2933333333333336E-005     0.0000000000000000     
  -2.2733333333333335E-005     0.0000000000000000     
  -2.2533333333333337E-005     0.0000000000000000     
  -2.2333333333333335E-005     0.0000000000000000     
  -2.2133333333333334E-005     0.0000000000000000     
  -2.1933333333333336E-005     0.0000000000000000     
  -2.1733333333333338E-005     0.0000000000000000     
  -2.1533333333333336E-005     0.0000000000000000     
  -2.1333333333333335E-005     0.0000000000000000     
  -2.1133333333333337E-005     0.0000000000000000     
  -2.0933333333333335E-005     0.0000000000000000     
  -2.0733333333333334E-005     0.0000000000000000     
  -2.0533333333333336E-005     0.0000000000000000     
  -2.0333333333333337E-005     0.0000000000000000     
  -2.0133333333333336E-005     0.0000000000000000     
  -1.9933333333333334E-005     0.0000000000000000     
  -1.9733333333333336E-005     0.0000000000000000     
  -1.9533333333333335E-005     0.0000000000000000     
  -1.9333333333333333E-005     0.0000000000000000     
  -1.9133333333333335E-005     0.0000000000000000     
  -1.8933333333333337E-005     0.0000000000000000     
  -1.8733333333333336E-005     0.0000000000000000     
  -1.8533333333333334E-005     0.0000000000000000     
  -1.8333333333333336E-005     0.0000000000000000     
  -1.8133333333333335E-005     0.0000000000000000     
  -1.7933333333333337E-005     0.0000000000000000     
  -1.7733333333333335E-005     0.0000000000000000     
  -1.7533333333333337E-005     0.0000000000000000     
  -1.7333333333333336E-005     0.0000000000000000     
  -1.7133333333333334E-005     0.0000000000000000     
  -1.6933333333333336E-005     0.0000000000000000     
  -1.6733333333333335E-005     0.0000000000000000     
  -1.6533333333333337E-005     0.0000000000000000     
  -1.6333333333333335E-005     0.0000000000000000     
  -1.6133333333333337E-005     0.0000000000000000     
  -1.5933333333333336E-005     0.0000000000000000     
  -1.5733333333333334E-005     0.0000000000000000     
  -1.5533333333333336E-005     0.0000000000000000     
  -1.5333333333333334E-005     0.0000000000000000     
  -1.5133333333333336E-005     0.0000000000000000     
  -1.4933333333333335E-005     0.0000000000000000     
  -1.4733333333333337E-005     0.0000000000000000     
  -1.4533333333333335E-005     0.0000000000000000     
  -1.4333333333333337E-005     0.0000000000000000     
  -1.4133333333333336E-005     0.0000000000000000     
  -1.3933333333333334E-005     0.0000000000000000     
  -1.3733333333333336E-005     0.0000000000000000     
  -1.3533333333333335E-005     0.0000000000000000     
  -1.3333333333333337E-005     0.0000000000000000     
  -1.3133333333333335E-005     0.0000000000000000     
  -1.2933333333333337E-005     0.0000000000000000     
  -1.2733333333333336E-005     0.0000000000000000     
  -1.2533333333333338E-005     0.0000000000000000     
  -1.2333333333333336E-005     0.0000000000000000     
  -1.2133333333333335E-005     0.0000000000000000     
  -1.1933333333333337E-005     0.0000000000000000     
  -1.1733333333333335E-005     0.0000000000000000     
  -1.1533333333333337E-005     0.0000000000000000     
  -1.1333333333333336E-005     0.0000000000000000     
  -1.1133333333333337E-005     0.0000000000000000     
  -1.0933333333333336E-005     0.0000000000000000     
  -1.0733333333333334E-005     0.0000000000000000     
  -1.0533333333333336E-005     0.0000000000000000     
  -1.0333333333333335E-005     0.0000000000000000     
  -1.0133333333333337E-005     0.0000000000000000     
  -9.9333333333333354E-006     0.0000000000000000     
  -9.7333333333333373E-006     0.0000000000000000     
  -9.5333333333333358E-006     0.0000000000000000     
  -9.3333333333333343E-006     0.0000000000000000     
  -9.1333333333333362E-006     0.0000000000000000     
  -8.9333333333333348E-006     0.0000000000000000     
  -8.7333333333333367E-006     0.0000000000000000     
  -8.5333333333333352E-006     0.0000000000000000     
  -8.3333333333333371E-006     0.0000000000000000     
  -8.1333333333333356E-006     0.0000000000000000     
  -7.9333333333333376E-006     0.0000000000000000     
  -7.7333333333333361E-006     0.0000000000000000     
  -7.5333333333333346E-006     0.0000000000000000     
  -7.3333333333333365E-006     0.0000000000000000     
  -7.1333333333333351E-006     0.0000000000000000     
  -6.9333333333333370E-006     0.0000000000000000     
  -6.7333333333333355E-006     0.0000000000000000     
  -6.5333333333333374E-006     0.0000000000000000     
  -6.3333333333333359E-006     0.0000000000000000     
  -6.1333333333333379E-006     0.0000000000000000     
  -5.9333333333333364E-006     0.0000000000000000     
  -5.7333333333333349E-006     0.0000000000000000     
  -5.5333333333333368E-006     0.0000000000000000     
  -5.3333333333333354E-006     0.0000000000000000     
  -5.1333333333333373E-006     0.0000000000000000     
  -4.9333333333333358E-006     0.0000000000000000     
  -4.7333333333333377E-006     0.0000000000000000     
  -4.5333333333333362E-006     0.0000000000000000     
  -4.3333333333333348E-006     0.0000000000000000     
  -4.1333333333333367E-006     0.0000000000000000     
  -3.9333333333333352E-006     0.0000000000000000     
  -3.7333333333333371E-006     0.0000000000000000     
  -3.5333333333333356E-006     0.0000000000000000     
  -3.3333333333333376E-006     0.0000000000000000     
  -3.1333333333333361E-006     0.0000000000000000     
  -2.9333333333333346E-006     0.0000000000000000     
  -2.7333333333333365E-006     0.0000000000000000     
  -2.5333333333333384E-006     0.0000000000000000     
  -2.3333333333333336E-006     0.0000000000000000     
  -2.1333333333333355E-006     0.0000000000000000     
  -1.9333333333333374E-006     0.0000000000000000     
  -1.7333333333333393E-006     0.0000000000000000     
  -1.5333333333333345E-006     0.0000000000000000     
  -1.3333333333333364E-006     0.0000000000000000     
  -1.1333333333333383E-006     0.0000000000000000     
  -9.3333333333333343E-007     0.0000000000000000     
  -7.3333333333333535E-007     0.0000000000000000     
  -5.3333333333333726E-007     0.0000000000000000     
  -3.3333333333333918E-007     0.0000000000000000     
  -1.3333333333333432E-007     0.0000000000000000     
   6.6666666666663770E-008     0.0000000000000000     
   2.6666666666666185E-007     0.0000000000000000     
   4.6666666666666672E-007     0.0000000000000000     
   6.6666666666666480E-007     0.0000000000000000     
   8.6666666666666289E-007     0.0000000000000000     
   1.0666666666666610E-006     0.0000000000000000     
   1.2666666666666658E-006     0.0000000000000000     
   1.4666666666666639E-006     0.0000000000000000     
   1.6666666666666620E-006     0.0000000000000000     
   1.8666666666666669E-006     0.0000000000000000     
   2.0666666666666649E-006     0.0000000000000000     
   2.2666666666666630E-006     0.0000000000000000     
   2.4666666666666611E-006     0.0000000000000000     
   2.6666666666666660E-006     0.0000000000000000     
   2.8666666666666641E-006     0.0000000000000000     
   3.0666666666666622E-006     0.0000000000000000     
   3.2666666666666602E-006     0.0000000000000000     
   3.4666666666666651E-006     0.0000000000000000     
   3.6666666666666632E-006     0.0000000000000000     
   3.8666666666666613E-006     0.0000000000000000     
   4.0666666666666661E-006     0.0000000000000000     
   4.2666666666666642E-006     0.0000000000000000     
   4.4666666666666623E-006     0.0000000000000000     
   4.6666666666666604E-006     0.0000000000000000     
   4.8666666666666652E-006     0.0000000000000000     
   5.0666666666666633E-006     0.0000000000000000     
   5.2666666666666614E-006     0.0000000000000000     
   5.4666666666666663E-006     0.0000000000000000     
   5.6666666666666644E-006     0.0000000000000000     
   5.8666666666666624E-006     0.0000000000000000     
   6.0666666666666605E-006     0.0000000000000000     
   6.2666666666666654E-006     0.0000000000000000     
   6.4666666666666635E-006     0.0000000000000000     
   6.6666666666666616E-006     0.0000000000000000     
   6.8666666666666664E-006     0.0000000000000000     
   7.0666666666666645E-006     0.0000000000000000     
   7.2666666666666626E-006     0.0000000000000000     
   7.4666666666666607E-006     0.0000000000000000     
   7.6666666666666655E-006     0.0000000000000000     
   7.8666666666666636E-006     0.0000000000000000     
   8.0666666666666617E-006     0.0000000000000000     
   8.2666666666666598E-006     0.0000000000000000     
   8.4666666666666647E-006     0.0000000000000000     
   8.6666666666666627E-006     0.0000000000000000     
   8.8666666666666608E-006     0.0000000000000000     
   9.0666666666666657E-006     0.0000000000000000     
   9.2666666666666638E-006     0.0000000000000000     
   9.4666666666666619E-006     6.3871291623647222E-037
   9.6666666666666599E-006     1.3151112099129492E-036
   9.8666666666666648E-006     1.9293870055443258E-036
   1.0066666666666663E-005     3.5287850383217290E-036
   1.0266666666666661E-005     1.6985320832460695E-035
   1.0466666666666666E-005     3.3183746346232386E-035
   1.0666666666666664E-005     6.3790628848301109E-035
   1.0866666666666662E-005     1.0761275404187496E-034
   1.1066666666666660E-005     1.5249208372750110E-034
   1.1266666666666665E-005     1.9454185846156636E-034
   1.1466666666666663E-005     2.0807088008456931E-034
   1.1666666666666661E-005     1.8428089480484168E-034
   1.1866666666666666E-005     9.3330715788687545E-035
   1.2066666666666664E-005    -8.1862316247633133E-035
   1.2266666666666662E-005    -3.0896209084770771E-034
   1.2466666666666660E-005    -5.5656714183783450E-034
   1.2666666666666665E-005    -7.7973304538476686E-034
   1.2866666666666663E-005    -9.3364465333525607E-034
   1.3066666666666661E-005    -9.2829266429016066E-034
   1.3266666666666666E-005    -7.0896208656927449E-034
   1.3466666666666664E-005    -2.2907032901916617E-034
   1.3666666666666662E-005     5.1682133603138093E-034
   1.3866666666666660E-005     1.5030617392197533E-033
   1.4066666666666665E-005     2.5955148528316349E-033
   1.4266666666666663E-005     3.6047232217736247E-033
   1.4466666666666661E-005     4.2549607789004352E-033
   1.4666666666666666E-005     4.2023585087270917E-033
   1.4866666666666664E-005     3.1278479388480699E-033
   1.5066666666666662E-005     7.7834688040575814E-034
   1.5266666666666661E-005    -2.9147038134081187E-033
   1.5466666666666665E-005    -7.7236973040411682E-033
   1.5666666666666663E-005    -1.3022577514366429E-032
   1.5866666666666662E-005    -1.7718843484478521E-032
   1.6066666666666660E-005    -2.0330455446747721E-032
   1.6266666666666665E-005    -1.9161845084717437E-032
   1.6466666666666663E-005    -1.2637864661965188E-032
   1.6666666666666661E-005     2.3508346475997700E-034
   1.6866666666666666E-005     1.9216413001850546E-032
   1.7066666666666664E-005     4.2340166287098498E-032
   1.7266666666666662E-005     6.5544113266327486E-032
   1.7466666666666660E-005     8.2722576120261248E-032
   1.7666666666666665E-005     8.6521221379773994E-032
   1.7866666666666663E-005     6.9639694276329697E-032
   1.8066666666666661E-005     2.6914821014301711E-032
   1.8266666666666666E-005    -4.2249294696308181E-032
   1.8466666666666664E-005    -1.3163469034646524E-031
   1.8666666666666662E-005    -2.2677025759001143E-031
   1.8866666666666660E-005    -3.0514754243532529E-031
   1.9066666666666665E-005    -3.3873938589001662E-031
   1.9266666666666663E-005    -2.9911128490430478E-031
   1.9466666666666661E-005    -1.6484192380451102E-031
   1.9666666666666666E-005     6.9821325785947002E-032
   1.9866666666666664E-005     3.8692177085564539E-031
   2.0066666666666662E-005     7.3964596601762073E-031
   2.0266666666666660E-005     1.0527676624608451E-030
   2.0466666666666665E-005     1.2305459486159295E-030
   2.0666666666666663E-005     1.1729362870358021E-030
   2.0866666666666661E-005     7.9904538827653610E-031
   2.1066666666666659E-005     7.4561700712205762E-032
   2.1266666666666664E-005    -9.6222657366220540E-031
   2.1466666666666662E-005    -2.1826609198723615E-030
   2.1666666666666660E-005    -3.3652672936357681E-030
   2.1866666666666665E-005    -4.2143274274719948E-030
   2.2066666666666663E-005    -4.4020506779536798E-030
   2.2266666666666661E-005    -3.6323505187301674E-030
   2.2466666666666659E-005    -1.7188819429362246E-030
   2.2666666666666664E-005     1.3351906186357350E-030
   2.2866666666666662E-005     5.2721068336074577E-030
   2.3066666666666660E-005     9.5470672000903467E-030
   2.3266666666666665E-005     1.3344919047936062E-029
   2.3466666666666663E-005     1.5657599799280560E-029
   2.3666666666666661E-005     1.5426044339287221E-029
   2.3866666666666660E-005     1.1739767782114211E-029
   2.4066666666666664E-005     4.0753813620974545E-030
   2.4266666666666662E-005    -7.4571714043283807E-030
   2.4466666666666661E-005    -2.1903380076498983E-029
   2.4666666666666665E-005    -3.7339728140988676E-029
   2.4866666666666663E-005    -5.0892235353539839E-029
   2.5066666666666662E-005    -5.8951108649895941E-029
   2.5266666666666660E-005    -5.7620489669849876E-029
   2.5466666666666665E-005    -4.3413500304681782E-029
   2.5666666666666663E-005    -1.4156808357687423E-029
   2.5866666666666661E-005     2.9993575313208451E-029
   2.6066666666666666E-005     8.5596728597951151E-029
   2.6266666666666664E-005     1.4527407533722014E-028
   2.6466666666666662E-005     1.9765075128805182E-028
   2.6666666666666660E-005     2.2818213351043379E-028
   2.6866666666666665E-005     2.2108233721519608E-028
   2.7066666666666663E-005     1.6240193607457699E-028
   2.7266666666666661E-005     4.4037600912426004E-029
   2.7466666666666666E-005    -1.3188138720813220E-028
   2.7666666666666664E-005    -3.4913556550993192E-028
   2.7866666666666662E-005    -5.7527113363908692E-028
   2.8066666666666667E-005    -7.6244778714696167E-028
   2.8266666666666658E-005    -8.5235987474892838E-028
   2.8466666666666663E-005    -7.8574865057913064E-028
   2.8666666666666668E-005    -5.1608215458546592E-028
   2.8866666666666659E-005    -2.5748437520524568E-029
   2.9066666666666664E-005     6.5820326593660541E-028
   2.9266666666666669E-005     1.4528349794947305E-027
   2.9466666666666660E-005     2.2171669520545348E-027
   2.9666666666666665E-005     2.7632039135852818E-027
   2.9866666666666656E-005     2.8825795997002136E-027
   3.0066666666666661E-005     2.3883405240237613E-027
   3.0266666666666666E-005     1.1674795692845957E-027
   3.0466666666666657E-005    -7.6447059136755158E-028
   3.0666666666666662E-005    -3.2192225243293805E-027
   3.0866666666666667E-005    -5.8164386249136929E-027
   3.1066666666666658E-005    -8.0031995727852253E-027
   3.1266666666666663E-005    -9.1217858474611539E-027
   3.1466666666666668E-005    -8.5271696141991722E-027
   3.1666666666666659E-005    -5.7441885186079723E-027
   3.1866666666666664E-005    -6.4131416032704182E-028
   3.2066666666666656E-005     6.4142942723421339E-027
   3.2266666666666660E-005     1.4463909527159069E-026
   3.2466666666666665E-005     2.1970702197522440E-026
   3.2666666666666657E-005     2.6974328282054744E-026
   3.2866666666666661E-005     2.7400538119491595E-026
   3.3066666666666666E-005     2.1508284877131109E-026
   3.3266666666666658E-005     8.4185032541330001E-027
   3.3466666666666662E-005    -1.1369987812418528E-026
   3.3666666666666667E-005    -3.5602272565779967E-026
   3.3866666666666659E-005    -6.0163697205893229E-026
   3.4066666666666664E-005    -7.9372306173629316E-026
   3.4266666666666668E-005    -8.6740174583756235E-026
   3.4466666666666660E-005    -7.6194207453623452E-026
   3.4666666666666665E-005    -4.3638084295499490E-026
   3.4866666666666656E-005     1.1383020195166208E-026
   3.5066666666666661E-005     8.4260223927846790E-026
   3.5266666666666666E-005     1.6455301984430423E-025
   3.5466666666666657E-005     2.3628272447161176E-025
   3.5666666666666662E-005     2.7959634041603254E-025
   3.5866666666666667E-005     2.7390712487138518E-025
   3.6066666666666658E-005     2.0232223784994392E-025
   3.6266666666666663E-005     5.6810107749354801E-026
   3.6466666666666668E-005    -1.5679566985115190E-025
   3.6666666666666659E-005    -4.1513681877739305E-025
   3.6866666666666664E-005    -6.7630322373187669E-025
   3.7066666666666669E-005    -8.8258320139521771E-025
   3.7266666666666660E-005    -9.6768798104078928E-025
   3.7466666666666665E-005    -8.6839356586255476E-025
   3.7666666666666656E-005    -5.3954526182282398E-025
   3.7866666666666661E-005     2.9725077014096679E-026
   3.8066666666666666E-005     8.0170923069576615E-025
   3.8266666666666657E-005     1.6815238754403041E-024
   3.8466666666666662E-005     2.5179726175535472E-024
   3.8666666666666667E-005     3.1168207937492002E-024
   3.8866666666666658E-005     3.2677077968126335E-024
   3.9066666666666663E-005     2.7833813192410831E-024
   3.9266666666666668E-005     1.5468643328429459E-024
   3.9466666666666659E-005    -4.4090998923470819E-025
   3.9666666666666664E-005    -3.0229169609591803E-024
   3.9866666666666655E-005    -5.8682905200066040E-024
   4.0066666666666660E-005    -8.4850494277078102E-024
   4.0266666666666665E-005    -1.0269979754402427E-023
   4.0466666666666656E-005    -1.0596582368660219E-023
   4.0666666666666661E-005    -8.9343546226073001E-024
   4.0866666666666666E-005    -4.9842093703599847E-024
   4.1066666666666657E-005     1.1928376594684366E-024
   4.1266666666666662E-005     9.0816475753865466E-024
   4.1466666666666667E-005     1.7682250926212941E-023
   4.1666666666666658E-005     2.5566084214502851E-023
   4.1866666666666663E-005     3.1031569734529123E-023
   4.2066666666666668E-005     3.2354792395172365E-023
   4.2266666666666660E-005     2.8110979471460234E-023
   4.2466666666666664E-005     1.7522244691085153E-023
   4.2666666666666656E-005     7.7096130615490101E-025
   4.2866666666666661E-005    -2.0789802801541021E-023
   4.3066666666666665E-005    -4.4593294074741494E-023
   4.3266666666666657E-005    -6.7030369397294254E-023
   4.3466666666666662E-005    -8.3850922313185316E-023
   4.3666666666666666E-005    -9.0770633468941262E-023
   4.3866666666666658E-005    -8.4213861438459399E-023
   4.4066666666666663E-005    -6.2084091614700916E-023
   4.4266666666666667E-005    -2.4427325632492870E-023
   4.4466666666666659E-005     2.6150626989828000E-023
   4.4666666666666664E-005     8.4429763201887528E-023
   4.4866666666666655E-005     1.4295299348840597E-022
   4.5066666666666660E-005     1.9283348894087198E-022
   4.5266666666666665E-005     2.2491146373351505E-022
   4.5466666666666656E-005     2.3110486749839039E-022
   4.5666666666666661E-005     2.0574533704558880E-022
   4.5866666666666666E-005     1.4667403144567176E-022
   4.6066666666666657E-005     5.5899333765346799E-023
   4.6266666666666662E-005    -6.0308700194072232E-023
   4.6466666666666667E-005    -1.9190660893167350E-022
   4.6666666666666658E-005    -3.2604969218299260E-022
   4.6866666666666663E-005    -4.4834633131375017E-022
   4.7066666666666668E-005    -5.4413545173710508E-022
   4.7266666666666659E-005    -5.9953923570356652E-022
   4.7466666666666664E-005    -6.0213386864059809E-022
   4.7666666666666655E-005    -5.4124062251575708E-022
   4.7866666666666660E-005    -4.0803682647795378E-022
   4.8066666666666665E-005    -1.9586979563240593E-022
   4.8266666666666656E-005     9.8739561183077363E-023
   4.8466666666666661E-005     4.7395283202787111E-022
   4.8666666666666666E-005     9.1910257273592090E-022
   4.8866666666666657E-005     1.4100010457757022E-021
   4.9066666666666662E-005     1.9038290831602101E-021
   4.9266666666666667E-005     2.3349812254789203E-021
   4.9466666666666658E-005     2.6137748172907107E-021
   4.9666666666666663E-005     2.6301724208545457E-021
   4.9866666666666655E-005     2.2644606451361152E-021
   5.0066666666666659E-005     1.4060219556391205E-021
   5.0266666666666664E-005    -2.0097643621525621E-023
   5.0466666666666656E-005    -2.0211089960740945E-021
   5.0666666666666660E-005    -4.5034341915447237E-021
   5.0866666666666665E-005    -7.2454187726068858E-021
   5.1066666666666657E-005    -9.8840376849458139E-021
   5.1266666666666661E-005    -1.1924173652644154E-020
   5.1466666666666666E-005    -1.2777677026369694E-020
   5.1666666666666658E-005    -1.1836047413458145E-020
   5.1866666666666662E-005    -8.5752004645782419E-021
   5.2066666666666667E-005    -2.6838652475591169E-021
   5.2266666666666659E-005     5.8005289207263806E-021
   5.2466666666666664E-005     1.6371595842153603E-020
   5.2666666666666655E-005     2.7977455208568293E-020
   5.2866666666666660E-005     3.9016997970178197E-020
   5.3066666666666665E-005     4.7433987217908602E-020
   5.3266666666666656E-005     5.0923913921058110E-020
   5.3466666666666661E-005     4.7252521239855513E-020
   5.3666666666666666E-005     3.4664367124575630E-020
   5.3866666666666657E-005     1.2336886695106964E-020
   5.4066666666666662E-005    -1.9185882390322079E-020
   5.4266666666666667E-005    -5.7661681288866119E-020
   5.4466666666666658E-005    -9.9007948778159751E-020
   5.4666666666666663E-005    -1.3742866584896086E-019
   5.4866666666666668E-005    -1.6586551972140005E-019
   5.5066666666666659E-005    -1.7678831046319207E-019
   5.5266666666666664E-005    -1.6328656444191578E-019
   5.5466666666666655E-005    -1.2036281828804378E-019
   5.5666666666666660E-005    -4.6268932405696072E-020
   5.5866666666666665E-005     5.6322004125699670E-020
   5.6066666666666656E-005     1.7954072810206813E-019
   5.6266666666666661E-005     3.1017047337902887E-019
   5.6466666666666666E-005     4.3030033692706240E-019
   5.6666666666666657E-005     5.1888016189443392E-019
   5.6866666666666662E-005     5.5415186699673100E-019
   5.7066666666666667E-005     5.1678977308893585E-019
   5.7266666666666658E-005     3.9343101001980157E-019
   5.7466666666666663E-005     1.8014565562378582E-019
   5.7666666666666654E-005    -1.1469617872765805E-019
   5.7866666666666659E-005    -4.6872887343959155E-019
   5.8066666666666664E-005    -8.4558217585745890E-019
   5.8266666666666655E-005    -1.1969274512320871E-018
   5.8466666666666660E-005    -1.4667197492441935E-018
   5.8666666666666665E-005    -1.5974799434886933E-018
   5.8866666666666656E-005    -1.5381309753089324E-018
   5.9066666666666661E-005    -1.2525805764349611E-018
   5.9266666666666666E-005    -7.2797896133986273E-019
   5.9466666666666657E-005     1.8574553912379910E-020
   5.9666666666666662E-005     9.3611554293773924E-019
   5.9866666666666667E-005     1.9397583887715512E-018
   6.0066666666666659E-005     2.9152268425563476E-018
   6.0266666666666663E-005     3.7281940106438766E-018
   6.0466666666666655E-005     4.2380354665873670E-018
   6.0666666666666660E-005     4.3149372073655031E-018
   6.0866666666666664E-005     3.8586813386838104E-018
   6.1066666666666656E-005     2.8169371062697340E-018
   6.1266666666666661E-005     1.2006225704259381E-018
   6.1466666666666665E-005    -9.0609384978573965E-019
   6.1666666666666657E-005    -3.3432392496078766E-018
   6.1866666666666662E-005    -5.8813695469474779E-018
   6.2066666666666666E-005    -8.2373011134582398E-018
   6.2266666666666658E-005    -1.0098650224785277E-017
   6.2466666666666663E-005    -1.1155419779436073E-017
   6.2666666666666668E-005    -1.1135809808654278E-017
   6.2866666666666659E-005    -9.8426030836143876E-018
   6.3066666666666664E-005    -7.1860174206298956E-018
   6.3266666666666655E-005    -3.2089557829417838E-018
   6.3466666666666660E-005     1.8988741598155052E-018
   6.3666666666666665E-005     7.8004868843036871E-018
   6.3866666666666656E-005     1.4025899459575752E-017
   6.4066666666666661E-005     2.0000638258936071E-017
   6.4266666666666666E-005     2.5086422597597903E-017
   6.4466666666666657E-005     2.8630537489085454E-017
   6.4666666666666662E-005     3.0019664905137606E-017
   6.4866666666666667E-005     2.8733693528915717E-017
   6.5066666666666658E-005     2.4395491866822160E-017
   6.5266666666666663E-005     1.6813921640353082E-017
   6.5466666666666654E-005     6.0187576292476354E-018
   6.5666666666666659E-005    -7.7119678054125500E-018
   6.5866666666666664E-005    -2.3830610226509698E-017
   6.6066666666666655E-005    -4.1502480289480330E-017
   6.6266666666666660E-005    -5.9591275850957290E-017
   6.6466666666666665E-005    -7.6648792255539888E-017
   6.6666666666666656E-005    -9.0914488065972312E-017
   6.6866666666666661E-005    -1.0033543335079596E-016
   6.7066666666666666E-005    -1.0262258774450508E-016
   6.7266666666666657E-005    -9.5363561708650027E-017
   6.7466666666666662E-005    -7.6213126153075559E-017
   6.7666666666666667E-005    -4.3179787504778606E-017
   6.7866666666666658E-005     4.9831179897542004E-018
   6.8066666666666663E-005     6.8289814528336323E-017
   6.8266666666666655E-005     1.4496980803658171E-016
   6.8466666666666659E-005     2.3091253695697140E-016
   6.8666666666666664E-005     3.1920230152997415E-016
   6.8866666666666656E-005     3.9986583143215241E-016
   6.9066666666666660E-005     4.5997578923184985E-016
   6.9266666666666665E-005     4.8425450635723667E-016
   6.9466666666666657E-005     4.5630241909784476E-016
   6.9666666666666661E-005     3.6052043634814091E-016
   6.9866666666666666E-005     1.8470912638062566E-016
   7.0066666666666658E-005    -7.6793628272075473E-017
   7.0266666666666662E-005    -4.1971967491086237E-016
   7.0466666666666654E-005    -8.2666259896622247E-016
   7.0666666666666659E-005    -1.2646358603601946E-015
   7.0866666666666664E-005    -1.6840804348516565E-015
   7.1066666666666655E-005    -2.0200306423916571E-015
   7.1266666666666660E-005    -2.1960703468524656E-015
   7.1466666666666665E-005    -2.1314942490196923E-015
   7.1666666666666656E-005    -1.7517377209091858E-015
   7.1866666666666661E-005    -1.0016373183145363E-015
   7.2066666666666666E-005     1.3951516731917023E-016
   7.2266666666666657E-005     1.6428194482876498E-015
   7.2466666666666662E-005     3.4168195243912836E-015
   7.2666666666666667E-005     5.2995205032863642E-015
   7.2866666666666658E-005     7.0583187732065067E-015
   7.3066666666666663E-005     8.4005576746117722E-015
   7.3266666666666654E-005     8.9967172505812411E-015
   7.3466666666666659E-005     8.5169332253009350E-015
   7.3666666666666664E-005     6.6797509499583532E-015
   7.3866666666666655E-005     3.3097308429358169E-015
   7.4066666666666660E-005    -1.6019130508911875E-015
   7.4266666666666665E-005    -7.8418759184265170E-015
   7.4466666666666656E-005    -1.4934603711049335E-014
   7.4666666666666661E-005    -2.2128437591421163E-014
   7.4866666666666666E-005    -2.8418585572894534E-014
   7.5066666666666657E-005    -3.2615206921934176E-014
   7.5266666666666662E-005    -3.3460650835379427E-014
   7.5466666666666653E-005    -2.9793689352653266E-014