  -3.3333333333333335E-005     0.0000000000000000     
  -3.3133333333333337E-005     0.0000000000000000     
  -3.2933333333333332E-005     0.0000000000000000     
  -3.2733333333333334E-005     0.0000000000000000     
  -3.2533333333333336E-005     0.0000000000000000     
  -3.2333333333333338E-005     0.0000000000000000     
  -3.2133333333333333E-005     0.0000000000000000     
  -3.1933333333333335E-005     0.0000000000000000     
  -3.1733333333333337E-005     0.0000000000000000     
  -3.1533333333333332E-005     0.0000000000000000     
  -3.1333333333333334E-005     0.0000000000000000     
  -3.1133333333333336E-005     0.0000000000000000     
  -3.0933333333333338E-005     0.0000000000000000     
  -3.0733333333333333E-005     0.0000000000000000     
  -3.0533333333333335E-005     0.0000000000000000     
  -3.0333333333333337E-005     0.0000000000000000     
  -3.0133333333333335E-005     0.0000000000000000     
  -2.9933333333333334E-005     0.0000000000000000     
  -2.9733333333333336E-005     0.0000000000000000     
  -2.9533333333333334E-005     0.0000000000000000     
  -2.9333333333333336E-005     0.0000000000000000     
  -2.9133333333333334E-005     0.0000000000000000     
  -2.8933333333333336E-005     0.0000000000000000     
  -2.8733333333333335E-005     0.0000000000000000     
  -2.8533333333333333E-005     0.0000000000000000     
  -2.8333333333333335E-005     0.0000000000000000     
  -2.8133333333333337E-005     0.0000000000000000     
  -2.7933333333333336E-005     0.0000000000000000     
  -2.7733333333333334E-005     0.0000000000000000     
  -2.7533333333333336E-005     0.0000000000000000     
  -2.7333333333333335E-005     0.0000000000000000     
  -2.7133333333333333E-005     0.0000000000000000     
  -2.6933333333333335E-005     0.0000000000000000     
  -2.6733333333333337E-005     0.0000000000000000     
  -2.6533333333333336E-005     0.0000000000000000     
  -2.6333333333333334E-005     0.0000000000000000     
  -2.6133333333333336E-005     0.0000000000000000     
  -2.5933333333333335E-005     0.0000000000000000     
  -2.5733333333333333E-005     0.0000000000000000     
  -2.5533333333333335E-005     0.0000000000000000     
  -2.5333333333333337E-005     0.0000000000000000     
  -2.5133333333333336E-005     0.0000000000000000     
  -2.4933333333333334E-005     0.0000000000000000     
  -2.4733333333333336E-005     0.0000000000000000     
  -2.4533333333333334E-005     0.0000000000000000     
  -2.4333333333333333E-005     0.0000000000000000     
  -2.4133333333333335E-005     0.0000000000000000     
  -2.3933333333333337E-005     0.0000000000000000     
  -2.3733333333333335E-005     0.0000000000000000     
  -2.3533333333333334E-005     0.0000000000000000     
  -2.3333333333333336E-005     0.0000000000000000     
  -2.3133333333333338E-005     0.0000000000000000     
  -2.2933333333333336E-005     0.0000000000000000     
  -2.2733333333333335E-005     0.0000000000000000     
  -2.2533333333333337E-005     0.0000000000000000     
  -2.2333333333333335E-005     0.0000000000000000     
  -2.2133333333333334E-005     0.0000000000000000     
  -2.1933333333333336E-005     0.0000000000000000     
  -2.1733333333333338E-005     0.0000000000000000     
  -2.1533333333333336E-005     0.0000000000000000     
  -2.1333333333333335E-005     0.0000000000000000     
  -2.1133333333333337E-005     0.0000000000000000     
  -2.0933333333333335E-005     0.0000000000000000     
  -2.0733333333333334E-005     0.0000000000000000     
  -2.0533333333333336E-005     0.0000000000000000     
  -2.0333333333333337E-005     0.0000000000000000     
  -2.0133333333333336E-005     0.0000000000000000     
  -1.9933333333333334E-005     0.0000000000000000     
  -1.9733333333333336E-005     0.0000000000000000     
  -1.9533333333333335E-005     0.0000000000000000     
  -1.9333333333333333E-005     0.0000000000000000     
  -1.9133333333333335E-005     0.0000000000000000     
  -1.8933333333333337E-005     0.0000000000000000     
  -1.8733333333333336E-005     0.0000000000000000     
  -1.8533333333333334E-005     0.0000000000000000     
  -1.8333333333333336E-005     0.0000000000000000     
  -1.8133333333333335E-005     0.0000000000000000     
  -1.7933333333333337E-005     0.0000000000000000     
  -1.7733333333333335E-005     0.0000000000000000     
  -1.7533333333333337E-005     0.0000000000000000     
  -1.7333333333333336E-005     0.0000000000000000     
  -1.7133333333333334E-005     0.0000000000000000     
  -1.6933333333333336E-005     0.0000000000000000     
  -1.6733333333333335E-005     0.0000000000000000     
  -1.6533333333333337E-005     0.0000000000000000     
  -1.6333333333333335E-005     0.0000000000000000     
  -1.6133333333333337E-005     0.0000000000000000     
  -1.5933333333333336E-005     0.0000000000000000     
  -1.5733333333333334E-005     0.0000000000000000     
  -1.5533333333333336E-005     0.0000000000000000     
  -1.5333333333333334E-005     0.0000000000000000     
  -1.5133333333333336E-005     0.0000000000000000     
  -1.4933333333333335E-005     0.0000000000000000     
  -1.4733333333333337E-005     0.0000000000000000     
  -1.4533333333333335E-005     0.0000000000000000     
  -1.4333333333333337E-005     0.0000000000000000     
  -1.4133333333333336E-005     0.0000000000000000     
  -1.3933333333333334E-005     0.0000000000000000     
  -1.3733333333333336E-005     0.0000000000000000     
  -1.3533333333333335E-005     0.0000000000000000     
  -1.3333333333333337E-005     0.0000000000000000     
  -1.3133333333333335E-005     0.0000000000000000     
  -1.2933333333333337E-005     0.0000000000000000     
  -1.2733333333333336E-005     0.0000000000000000     
  -1.2533333333333338E-005     0.0000000000000000     
  -1.2333333333333336E-005     0.0000000000000000     
  -1.2133333333333335E-005     0.0000000000000000     
  -1.1933333333333337E-005     0.0000000000000000     
  -1.1733333333333335E-005     0.0000000000000000     
  -1.1533333333333337E-005     0.0000000000000000     
  -1.1333333333333336E-005     0.0000000000000000     
  -1.1133333333333337E-005     0.0000000000000000     
  -1.0933333333333336E-005     0.0000000000000000     
  -1.0733333333333334E-005     0.0000000000000000     
  -1.0533333333333336E-005     0.0000000000000000     
  -1.0333333333333335E-005     0.0000000000000000     
  -1.0133333333333337E-005     0.0000000000000000     
  -9.9333333333333354E-006     0.0000000000000000     
  -9.7333333333333373E-006     0.0000000000000000     
  -9.5333333333333358E-006     0.0000000000000000     
  -9.3333333333333343E-006     0.0000000000000000     
  -9.1333333333333362E-006     0.0000000000000000     
  -8.9333333333333348E-006     0.0000000000000000     
  -8.7333333333333367E-006     0.0000000000000000     
  -8.5333333333333352E-006     0.0000000000000000     
  -8.3333333333333371E-006     0.0000000000000000     
  -8.1333333333333356E-006     0.0000000000000000     
  -7.9333333333333376E-006     0.0000000000000000     
  -7.7333333333333361E-006     0.0000000000000000     
  -7.5333333333333346E-006     0.0000000000000000     
  -7.3333333333333365E-006     0.0000000000000000     
  -7.1333333333333351E-006     0.0000000000000000     
  -6.9333333333333370E-006     0.0000000000000000     
  -6.7333333333333355E-006     0.0000000000000000     
  -6.5333333333333374E-006     0.0000000000000000     
  -6.3333333333333359E-006     0.0000000000000000     
  -6.1333333333333379E-006     0.0000000000000000     
  -5.9333333333333364E-006     0.0000000000000000     
  -5.7333333333333349E-006     0.0000000000000000     
  -5.5333333333333368E-006     0.0000000000000000     
  -5.3333333333333354E-006     0.0000000000000000     
  -5.1333333333333373E-006     0.0000000000000000     
  -4.9333333333333358E-006     0.0000000000000000     
  -4.7333333333333377E-006     0.0000000000000000     
  -4.5333333333333362E-006     0.0000000000000000     
  -4.3333333333333348E-006     0.0000000000000000     
  -4.1333333333333367E-006     0.0000000000000000     
  -3.9333333333333352E-006     0.0000000000000000     
  -3.7333333333333371E-006     0.0000000000000000     
  -3.5333333333333356E-006     0.0000000000000000     
  -3.3333333333333376E-006     0.0000000000000000     
  -3.1333333333333361E-006     0.0000000000000000     
  -2.9333333333333346E-006     0.0000000000000000     
  -2.7333333333333365E-006     0.0000000000000000     
  -2.5333333333333384E-006     0.0000000000000000     
  -2.3333333333333336E-006     0.0000000000000000     
  -2.1333333333333355E-006     0.0000000000000000     
  -1.9333333333333374E-006     0.0000000000000000     
  -1.7333333333333393E-006     0.0000000000000000     
  -1.5333333333333345E-006     0.0000000000000000     
  -1.3333333333333364E-006     0.0000000000000000     
  -1.1333333333333383E-006     0.0000000000000000     
  -9.3333333333333343E-007     0.0000000000000000     
  -7.3333333333333535E-007     0.0000000000000000     
  -5.3333333333333726E-007     0.0000000000000000     
  -3.3333333333333918E-007     0.0000000000000000     
  -1.3333333333333432E-007     0.0000000000000000     
   6.6666666666663770E-008     0.0000000000000000     
   2.6666666666666185E-007     0.0000000000000000     
   4.6666666666666672E-007     0.0000000000000000     
   6.6666666666666480E-007     0.0000000000000000     
   8.6666666666666289E-007     0.0000000000000000     
   1.0666666666666610E-006     0.0000000000000000     
   1.2666666666666658E-006     0.0000000000000000     
   1.4666666666666639E-006     0.0000000000000000     
   1.6666666666666620E-006     0.0000000000000000     
   1.8666666666666669E-006     0.0000000000000000     
   2.0666666666666649E-006     0.0000000000000000     
   2.2666666666666630E-006     0.0000000000000000     
   2.4666666666666611E-006     0.0000000000000000     
   2.6666666666666660E-006     0.0000000000000000     
   2.8666666666666641E-006     0.0000000000000000     
   3.0666666666666622E-006     0.0000000000000000     
   3.2666666666666602E-006     0.0000000000000000     
   3.4666666666666651E-006     0.0000000000000000     
   3.6666666666666632E-006     0.0000000000000000     
   3.8666666666666613E-006     0.0000000000000000     
   4.0666666666666661E-006     0.0000000000000000     
   4.2666666666666642E-006     0.0000000000000000     
   4.4666666666666623E-006     0.0000000000000000     
   4.6666666666666604E-006     0.0000000000000000     
   4.8666666666666652E-006     0.0000000000000000     
   5.0666666666666633E-006     0.0000000000000000     
   5.2666666666666614E-006     0.0000000000000000     
   5.4666666666666663E-006     0.0000000000000000     
   5.6666666666666644E-006     0.0000000000000000     
   5.8666666666666624E-006     0.0000000000000000     
   6.0666666666666605E-006     0.0000000000000000     
   6.2666666666666654E-006     0.0000000000000000     
   6.4666666666666635E-006     0.0000000000000000     
   6.6666666666666616E-006     0.0000000000000000     
   6.8666666666666664E-006     0.0000000000000000     
   7.0666666666666645E-006     0.0000000000000000     
   7.2666666666666626E-006     0.0000000000000000     
   7.4666666666666607E-006     0.0000000000000000     
   7.6666666666666655E-006     0.0000000000000000     
   7.8666666666666636E-006     0.0000000000000000     
   8.0666666666666617E-006     0.0000000000000000     
   8.2666666666666598E-006     2.1675945072537313E-035
   8.4666666666666647E-006     5.1303859750632221E-035
   8.6666666666666627E-006     8.5603470512087809E-035
   8.8666666666666608E-006     1.2649794322504851E-034
   9.0666666666666657E-006     1.6353444118272307E-034
   9.2666666666666638E-006     1.7590941204325662E-034
   9.4666666666666619E-006     1.8835812680720504E-034
   9.6666666666666599E-006     1.7326397578205548E-034
   9.8666666666666648E-006     1.2959688612515185E-034
   1.0066666666666663E-005     5.8563714009254371E-035
   1.0266666666666661E-005    -3.0972229934518506E-035
   1.0466666666666666E-005    -1.3630450484678345E-034
   1.0666666666666664E-005    -2.5361414596910666E-034
   1.0866666666666662E-005    -3.7900431204231239E-034
   1.1066666666666660E-005    -5.1693718650978424E-034
   1.1266666666666665E-005    -6.6844821459070356E-034
   1.1466666666666663E-005    -8.4206299048864555E-034
   1.1666666666666661E-005    -1.0308680462173405E-033
   1.1866666666666666E-005    -1.1897502503973810E-033
   1.2066666666666664E-005    -1.2532686386570402E-033
   1.2266666666666662E-005    -1.1058104028570692E-033
   1.2466666666666660E-005    -6.0789560776171855E-034
   1.2666666666666665E-005     3.6056057608917030E-034
   1.2866666666666663E-005     1.9053771603470774E-033
   1.3066666666666661E-005     4.0131648970141523E-033
   1.3266666666666666E-005     6.5165762777100070E-033
   1.3466666666666664E-005     9.0428532275812630E-033
   1.3666666666666662E-005     1.1003229564551407E-032
   1.3866666666666660E-005     1.1603932157076551E-032
   1.4066666666666665E-005     1.0023820895757724E-032
   1.4266666666666663E-005     5.5461678548817916E-033
   1.4466666666666661E-005    -2.1969355751945063E-033
   1.4666666666666666E-005    -1.2987030565197563E-032
   1.4866666666666664E-005    -2.5801260522088373E-032
   1.5066666666666662E-005    -3.8733526274849064E-032
   1.5266666666666661E-005    -4.9124502545510560E-032
   1.5466666666666665E-005    -5.3869573571700855E-032
   1.5666666666666663E-005    -5.0009990685041481E-032
   1.5866666666666662E-005    -3.5406894894437253E-032
   1.6066666666666660E-005    -9.5361406156962048E-033
   1.6266666666666665E-005     2.5908330425033021E-032
   1.6466666666666663E-005     6.6736558245688631E-032
   1.6666666666666661E-005     1.0651753814919666E-031
   1.6866666666666666E-005     1.3747143122132068E-031
   1.7066666666666664E-005     1.5189963696240957E-031
   1.7266666666666662E-005     1.4401827647856436E-031
   1.7466666666666660E-005     1.1176039576812967E-031
   1.7666666666666665E-005     5.8017046779820116E-032
   1.7866666666666663E-005    -9.1080946334198385E-033
   1.8066666666666661E-005    -7.7467052549698128E-032
   1.8266666666666666E-005    -1.3351677435156680E-031
   1.8466666666666664E-005    -1.6611760553885389E-031
   1.8666666666666662E-005    -1.7067643124009990E-031
   1.8866666666666660E-005    -1.5245315374232477E-031
   1.9066666666666665E-005    -1.2766705601907828E-031
   1.9266666666666663E-005    -1.2122397164818168E-031
   1.9466666666666661E-005    -1.6048361392962828E-031
   1.9666666666666666E-005    -2.6549207594112630E-031
   1.9866666666666664E-005    -4.3733656065280779E-031
   2.0066666666666662E-005    -6.4759173387082851E-031
   2.0266666666666660E-005    -8.3255036269870167E-031
   2.0466666666666665E-005    -8.9612664552450686E-031
   2.0666666666666663E-005    -7.2422719469698092E-031
   2.0866666666666661E-005    -2.1119878955319980E-031
   2.1066666666666659E-005     7.0426786485730687E-031
   2.1266666666666664E-005     2.0000983717094305E-030
   2.1466666666666662E-005     3.5382447668225461E-030
   2.1666666666666660E-005     5.0500602765563387E-030
   2.1866666666666665E-005     6.1505012879091325E-030
   2.2066666666666663E-005     6.3883186533290756E-030
   2.2266666666666661E-005     5.3324678102453457E-030
   2.2466666666666659E-005     2.6855812255835348E-030
   2.2666666666666664E-005    -1.5947629050261203E-030
   2.2866666666666662E-005    -7.1946671529084005E-030
   2.3066666666666660E-005    -1.3394143108975616E-029
   2.3266666666666665E-005    -1.9097786143911184E-029
   2.3466666666666663E-005    -2.2963568399697699E-029
   2.3666666666666661E-005    -2.3628441546217706E-029
   2.3866666666666660E-005    -2.0005070675853244E-029
   2.4066666666666664E-005    -1.1598964999902660E-029
   2.4266666666666662E-005     1.2240018305055797E-030
   2.4466666666666661E-005     1.7096875834743753E-029
   2.4666666666666665E-005     3.3704427037398396E-029
   2.4866666666666663E-005     4.8065984317665718E-029
   2.5066666666666662E-005     5.7037137526757135E-029
   2.5266666666666660E-005     5.7961601955656237E-029
   2.5466666666666665E-005     4.9349457134526292E-029
   2.5666666666666663E-005     3.1420475744146188E-029
   2.5866666666666661E-005     6.3457104625750462E-030
   2.6066666666666666E-005    -2.1942434324652510E-029
   2.6266666666666664E-005    -4.8420460751726803E-029
   2.6466666666666662E-005    -6.8057748021309462E-029
   2.6666666666666660E-005    -7.7118977575752977E-029
   2.6866666666666665E-005    -7.4379306118675677E-029
   2.7066666666666663E-005    -6.1888561075199658E-029
   2.7266666666666661E-005    -4.4946567623803865E-029
   2.7466666666666666E-005    -3.1077518778564969E-029
   2.7666666666666664E-005    -2.8012247799530239E-029
   2.7866666666666662E-005    -4.0971421135198767E-029
   2.8066666666666667E-005    -6.9831216536474143E-029
   2.8266666666666658E-005    -1.0696996485996940E-028
   2.8466666666666663E-005    -1.3666023329032670E-028
   2.8666666666666668E-005    -1.3672229638278458E-028
   2.8866666666666659E-005    -8.2769198624223335E-029
   2.9066666666666664E-005     4.5222050837489692E-029
   2.9266666666666669E-005     2.5498698573517229E-028
   2.9466666666666660E-005     5.3434748158504003E-028
   2.9666666666666665E-005     8.4599063182984536E-028
   2.9866666666666656E-005     1.1268207807461507E-027
   3.0066666666666661E-005     1.2935910990835247E-027
   3.0266666666666666E-005     1.2554954344115674E-027
   3.0466666666666657E-005     9.3291738357326603E-028
   3.0666666666666662E-005     2.7981725421030347E-028
   3.0866666666666667E-005    -6.9435143024879832E-028
   3.1066666666666658E-005    -1.9083531373427802E-027
   3.1266666666666663E-005    -3.2037900476850056E-027
   3.1466666666666668E-005    -4.3548430715844309E-027
   3.1666666666666659E-005    -5.0950287937629775E-027
   3.1866666666666664E-005    -5.1595851951268598E-027
   3.2066666666666656E-005    -4.3382916296423670E-027
   3.2266666666666660E-005    -2.5300772197580011E-027
   3.2466666666666665E-005     2.1155801178709357E-028
   3.2666666666666657E-005     3.6536535789198371E-027
   3.2866666666666661E-005     7.3886954165455232E-027
   3.3066666666666666E-005     1.0874040051695415E-026
   3.3266666666666658E-005     1.3504055317011626E-026
   3.3466666666666662E-005     1.4705924965458680E-026
   3.3666666666666667E-005     1.4043375790454317E-026
   3.3866666666666659E-005     1.1308504424873910E-026
   3.4066666666666664E-005     6.5813679246457489E-027
   3.4266666666666668E-005     2.4134191652393456E-028
   3.4466666666666660E-005    -7.0770707070799354E-027
   3.4666666666666665E-005    -1.4579419101503638E-026
   3.4866666666666656E-005    -2.1440167046114066E-026
   3.5066666666666661E-005    -2.6937359671586242E-026
   3.5266666666666666E-005    -3.0559987674659967E-026
   3.5466666666666657E-005    -3.2057341198894689E-026
   3.5666666666666662E-005    -3.1410823464747405E-026
   3.5866666666666667E-005    -2.8727519258613955E-026
   3.6066666666666658E-005    -2.4078273528312636E-026
   3.6266666666666663E-005    -1.7325624179620775E-026
   3.6466666666666668E-005    -8.0029792463995874E-027
   3.6666666666666659E-005     4.6905576979804031E-027
   3.6866666666666664E-005     2.1729239886302857E-026
   3.7066666666666669E-005     4.3915073080845218E-026
   3.7266666666666660E-005     7.1375882022388445E-026
   3.7466666666666665E-005     1.0298918081330521E-025
   3.7666666666666656E-005     1.3586343062038701E-025
   3.7866666666666661E-005     1.6504020308303642E-025
   3.8066666666666666E-005     1.8358186097028726E-025
   3.8266666666666657E-005     1.8317235587881604E-025
   3.8466666666666662E-005     1.5528076109028810E-025
   3.8666666666666667E-005     9.2825090154033442E-026
   3.8866666666666658E-005    -7.8542974546928928E-027
   3.9066666666666663E-005    -1.4502466952794493E-025
   3.9266666666666668E-005    -3.0999479957588477E-025
   3.9466666666666659E-005    -4.8637850200125660E-025
   3.9666666666666664E-005    -6.5055958625470076E-025
   3.9866666666666655E-005    -7.7358555056373186E-025
   4.0066666666666660E-005    -8.2450055623515244E-025
   4.0266666666666665E-005    -7.7485882136856515E-025
   4.0466666666666656E-005    -6.0388939181046787E-025
   4.0666666666666661E-005    -3.0356072677338576E-025
   4.0866666666666666E-005     1.1732927923768743E-025
   4.1066666666666657E-005     6.3089022705153321E-025
   4.1266666666666662E-005     1.1903772023050523E-024
   4.1466666666666667E-005     1.7332747285446130E-024
   4.1666666666666658E-005     2.1871377645392436E-024
   4.1866666666666663E-005     2.4776326374432603E-024
   4.2066666666666668E-005     2.5378049751412560E-024
   4.2266666666666660E-005     2.3173228880821882E-024
   4.2466666666666664E-005     1.7903803694735620E-024
   4.2666666666666656E-005     9.6111183931964062E-025
   4.2866666666666661E-005    -1.3423016807183677E-025
   4.3066666666666665E-005    -1.4285336193379837E-024
   4.3266666666666657E-005    -2.8281312290267818E-024
   4.3466666666666662E-005    -4.2192560781630535E-024
   4.3666666666666666E-005    -5.4754863041522112E-024
   4.3866666666666658E-005    -6.4650539340449842E-024
   4.4066666666666663E-005    -7.0572892864873957E-024
   4.4266666666666667E-005    -7.1281266291935269E-024
   4.4466666666666659E-005    -6.5653978300500021E-024
   4.4666666666666664E-005    -5.2753384874317992E-024
   4.4866666666666655E-005    -3.1920927180340313E-024
   4.5066666666666660E-005    -2.9176111791641288E-025
   4.5266666666666665E-005     3.3883544087200983E-024
   4.5466666666666656E-005     7.7262890880473166E-024
   4.5666666666666661E-005     1.2490823573269501E-023
   4.5866666666666666E-005     1.7321050450373965E-023
   4.6066666666666657E-005     2.1717230280207724E-023
   4.6266666666666662E-005     2.5050831825648695E-023
   4.6466666666666667E-005     2.6600964014791519E-023
   4.6666666666666658E-005     2.5621787260742317E-023
   4.6866666666666663E-005     2.1440975924364757E-023
   4.7066666666666668E-005     1.3583305996857407E-023
   4.7266666666666659E-005     1.9065649868858705E-024
   4.7466666666666664E-005    -1.3269363022406601E-023
   4.7666666666666655E-005    -3.1064077114711470E-023
   4.7866666666666660E-005    -4.9994324925645777E-023
   4.8066666666666665E-005    -6.8010576403685674E-023
   4.8266666666666656E-005    -8.2628093246784122E-023
   4.8466666666666661E-005    -9.1156367518932612E-023
   4.8666666666666666E-005    -9.1015880858043612E-023
   4.8866666666666657E-005    -8.0114561521696516E-023
   4.9066666666666662E-005    -5.7241198786902223E-023
   4.9266666666666667E-005    -2.2421798242262250E-023
   4.9466666666666658E-005     2.2820086224699287E-023
   4.9666666666666663E-005     7.5353981596192205E-023
   4.9866666666666655E-005     1.3052642736903215E-022
   5.0066666666666659E-005     1.8245895829525699E-022
   5.0266666666666664E-005     2.2455378788820060E-022
   5.0466666666666656E-005     2.5017005785577180E-022
   5.0666666666666660E-005     2.5340653326884015E-022
   5.0866666666666665E-005     2.2990332505465568E-022
   5.1066666666666657E-005     1.7756523127072586E-022
   5.1266666666666661E-005     9.7110348843629754E-023
   5.1466666666666666E-005    -7.6374909602511134E-024
   5.1666666666666658E-005    -1.2976652081447637E-022
   5.1866666666666662E-005    -2.5962452425040942E-022
   5.2066666666666667E-005    -3.8547699493221777E-022
   5.2266666666666659E-005    -4.9442262393687836E-022
   5.2466666666666664E-005    -5.7348446004688830E-022
   5.2666666666666655E-005    -6.1078129877475840E-022
   5.2866666666666660E-005    -5.9667959598947863E-022
   5.3066666666666665E-005    -5.2483706147436585E-022
   5.3266666666666656E-005    -3.9306432222750588E-022
   5.3466666666666661E-005    -2.0395227514068316E-022
   5.3666666666666666E-005     3.4772114644259216E-023
   5.3866666666666657E-005     3.1018715088306366E-022
   5.4066666666666662E-005     6.0443951342905461E-022
   5.4266666666666667E-005     8.9535737986133807E-022
   5.4466666666666658E-005     1.1574464065538538E-021
   5.4666666666666663E-005     1.3632996723930513E-021
   5.4866666666666668E-005     1.4854341217216954E-021
   5.5066666666666659E-005     1.4985316866161630E-021
   5.5266666666666664E-005     1.3819970642419825E-021
   5.5466666666666655E-005     1.1226734178517116E-021
   5.5666666666666660E-005     7.1746846318398193E-022
   5.5866666666666665E-005     1.7557757946860754E-022
   5.6066666666666656E-005    -4.8005116858733645E-022
   5.6266666666666661E-005    -1.2123478943829684E-021
   5.6466666666666666E-005    -1.9711102093511688E-021
   5.6666666666666657E-005    -2.6954708177354346E-021
   5.6866666666666662E-005    -3.3177685264715590E-021
   5.7066666666666667E-005    -3.7685383394603440E-021
   5.7266666666666658E-005    -3.9821440001615253E-021
   5.7466666666666663E-005    -3.9024398167044992E-021
   5.7666666666666654E-005    -3.4878510775792398E-021
   5.7866666666666659E-005    -2.7153530407986843E-021
   5.8066666666666664E-005    -1.5830832373200422E-021
   5.8266666666666655E-005    -1.1165942411459123E-022
   5.8466666666666660E-005     1.6553797518197788E-021
   5.8666666666666665E-005     3.6512984123280235E-021
   5.8866666666666656E-005     5.7852446586461893E-021
   5.9066666666666661E-005     7.9400517699339603E-021
   5.9266666666666666E-005     9.9686241727214635E-021
   5.9466666666666657E-005     1.1689579091693006E-020
   5.9666666666666662E-005     1.2883861490744787E-020
   5.9866666666666667E-005     1.3295079307315180E-020
   6.0066666666666659E-005     1.2637158912018681E-020
   6.0266666666666663E-005     1.0613179623452835E-020
   6.0466666666666655E-005     6.9486636888856524E-021
   6.0666666666666660E-005     1.4410324356499449E-021
   6.0866666666666664E-005    -5.9758956534522406E-021
   6.1066666666666656E-005    -1.5157171918303583E-020
   6.1266666666666661E-005    -2.5670975161563548E-020
   6.1466666666666665E-005    -3.6735362422118453E-020
   6.1666666666666657E-005    -4.7184459785078884E-020
   6.1866666666666662E-005    -5.5482700147293912E-020
   6.2066666666666666E-005    -5.9804389268108168E-020
   6.2266666666666658E-005    -5.8191231977264910E-020
   6.2466666666666663E-005    -4.8791865585725484E-020
   6.2666666666666668E-005    -3.0175047913922943E-020
   6.2866666666666659E-005    -1.6931360231388496E-021
   6.3066666666666664E-005     3.6143685946072954E-020
   6.3266666666666655E-005     8.1337302942495697E-020
   6.3466666666666660E-005     1.3018160725541307E-019
   6.3666666666666665E-005     1.7722309727266526E-019
   6.3866666666666656E-005     2.1546734052965700E-019
   6.4066666666666661E-005     2.3688038410105823E-019
   6.4266666666666666E-005     2.3320457440463158E-019
   6.4466666666666657E-005     1.9706806489660737E-019
   6.4666666666666662E-005     1.2331688705062378E-019
   6.4866666666666667E-005     1.0445188449889978E-020
   6.5066666666666658E-005    -1.3805317428674132E-019
   6.5266666666666663E-005    -3.1262981058711974E-019
   6.5466666666666654E-005    -4.9716398247792614E-019
   6.5666666666666659E-005    -6.6921723969622619E-019
   6.5866666666666664E-005    -8.0125568648106181E-019
   6.6066666666666655E-005    -8.6295674273261725E-019
   6.6266666666666660E-005    -8.2459851657215511E-019
   6.6466666666666665E-005    -6.6138068566926366E-019
   6.6666666666666656E-005    -3.5835028024142767E-019
   6.6866666666666661E-005     8.4572193060688915E-020
   6.7066666666666666E-005     6.4813245758103780E-019
   6.7266666666666657E-005     1.2906290234560221E-018
   6.7466666666666662E-005     1.9469736784596981E-018
   6.7666666666666667E-005     2.5306906349102994E-018
   6.7866666666666658E-005     2.9394539287222601E-018
   6.8066666666666663E-005     3.0644332678583564E-018
   6.8266666666666655E-005     2.8033068241360853E-018
   6.8466666666666659E-005     2.0762342976512158E-018
   6.8666666666666664E-005     8.4349364820833907E-019
   6.8866666666666656E-005    -8.7713435993783472E-019
   6.9066666666666660E-005    -2.9956635396822291E-018
   6.9266666666666665E-005    -5.3406701182526968E-018
   6.9466666666666657E-005    -7.6583937986793280E-018
   6.9666666666666661E-005    -9.6227467486039184E-018
   6.9866666666666666E-005    -1.0858097980060012E-017
   7.0066666666666658E-005    -1.0975506341844564E-017
   7.0266666666666662E-005    -9.6215034961432512E-018
   7.0466666666666654E-005    -6.5365271977721403E-018
   7.0666666666666659E-005    -1.6180166667492770E-018
   7.0866666666666664E-005     5.0189452500354034E-018
   7.1066666666666655E-005     1.2992278554367252E-017
   7.1266666666666660E-005     2.1624754452124738E-017
   7.1466666666666665E-005     2.9947041756077901E-017
   7.1666666666666656E-005     3.6740686053143268E-017
   7.1866666666666661E-005     4.0627008872766456E-017
   7.2066666666666666E-005     4.0203561882310761E-017
   7.2266666666666657E-005     3.4223969187115980E-017
   7.2466666666666662E-005     2.1810069379116218E-017
   7.2666666666666667E-005     2.6777943670951985E-018
   7.2866666666666658E-005    -2.2648962869142996E-017
   7.3066666666666663E-005    -5.2668032204239565E-017
   7.3266666666666654E-005    -8.4807162140587092E-017
   7.3466666666666659E-005    -1.1544562762708582E-016
   7.3666666666666664E-005    -1.4007917214803339E-016
   7.3866666666666655E-005    -1.5364854731881867E-016
   7.4066666666666660E-005    -1.5103623153503741E-016
   7.4266666666666665E-005    -1.2771583954524022E-016
   7.4466666666666656E-005    -8.0514280049894091E-017
   7.4666666666666661E-005    -8.4213926403237537E-018
   7.4866666666666666E-005     8.6643476630675212E-017
   7.5066666666666657E-005     1.9921833754594880E-016
   7.5266666666666662E-005     3.1996121658093440E-016
   7.5466666666666653E-005     4.3571102168031312E-016