  -3.3333333333333335E-005     0.0000000000000000     
  -3.3133333333333337E-005     0.0000000000000000     
  -3.2933333333333332E-005     0.0000000000000000     
  -3.2733333333333334E-005     0.0000000000000000     
  -3.2533333333333336E-005     0.0000000000000000     
  -3.2333333333333338E-005     0.0000000000000000     
  -3.2133333333333333E-005     0.0000000000000000     
  -3.1933333333333335E-005     0.0000000000000000     
  -3.1733333333333337E-005     0.0000000000000000     
  -3.1533333333333332E-005     0.0000000000000000     
  -3.1333333333333334E-005     0.0000000000000000     
  -3.1133333333333336E-005     0.0000000000000000     
  -3.0933333333333338E-005     0.0000000000000000     
  -3.0733333333333333E-005     0.0000000000000000     
  -3.0533333333333335E-005     0.0000000000000000     
  -3.0333333333333337E-005     0.0000000000000000     
  -3.0133333333333335E-005     0.0000000000000000     
  -2.9933333333333334E-005     0.0000000000000000     
  -2.9733333333333336E-005     0.0000000000000000     
  -2.9533333333333334E-005     0.0000000000000000     
  -2.9333333333333336E-005     0.0000000000000000     
  -2.9133333333333334E-005     0.0000000000000000     
  -2.8933333333333336E-005     0.0000000000000000     
  -2.8733333333333335E-005     0.0000000000000000     
  -2.8533333333333333E-005     0.0000000000000000     
  -2.8333333333333335E-005     0.0000000000000000     
  -2.8133333333333337E-005     0.0000000000000000     
  -2.7933333333333336E-005     0.0000000000000000     
  -2.7733333333333334E-005     0.0000000000000000     
  -2.7533333333333336E-005     0.0000000000000000     
  -2.7333333333333335E-005     0.0000000000000000     
  -2.7133333333333333E-005     0.0000000000000000     
  -2.6933333333333335E-005     0.0000000000000000     
  -2.6733333333333337E-005     0.0000000000000000     
  -2.6533333333333336E-005     0.0000000000000000     
  -2.6333333333333334E-005     0.0000000000000000     
  -2.6133333333333336E-005     0.0000000000000000     
  -2.5933333333333335E-005     0.0000000000000000     
  -2.5733333333333333E-005     0.0000000000000000     
  -2.5533333333333335E-005     0.0000000000000000     
  -2.5333333333333337E-005     0.0000000000000000     
  -2.5133333333333336E-005     0.0000000000000000     
  -2.4933333333333334E-005     0.0000000000000000     
  -2.4733333333333336E-005     0.0000000000000000     
  -2.4533333333333334E-005     0.0000000000000000     
  -2.4333333333333333E-005     0.0000000000000000     
  -2.4133333333333335E-005     0.0000000000000000     
  -2.3933333333333337E-005     0.0000000000000000     
  -2.3733333333333335E-005     0.0000000000000000     
  -2.3533333333333334E-005     0.0000000000000000     
  -2.3333333333333336E-005     0.0000000000000000     
  -2.3133333333333338E-005     0.0000000000000000     
  -2.2933333333333336E-005     0.0000000000000000     
  -2.2733333333333335E-005     0.0000000000000000     
  -2.2533333333333337E-005     0.0000000000000000     
  -2.2333333333333335E-005     0.0000000000000000     
  -2.2133333333333334E-005     0.0000000000000000     
  -2.1933333333333336E-005     0.0000000000000000     
  -2.1733333333333338E-005     0.0000000000000000     
  -2.1533333333333336E-005     0.0000000000000000     
  -2.1333333333333335E-005     0.0000000000000000     
  -2.1133333333333337E-005     0.0000000000000000     
  -2.0933333333333335E-005     0.0000000000000000     
  -2.0733333333333334E-005     0.0000000000000000     
  -2.0533333333333336E-005     0.0000000000000000     
  -2.0333333333333337E-005     0.0000000000000000     
  -2.0133333333333336E-005     0.0000000000000000     
  -1.9933333333333334E-005     0.0000000000000000     
  -1.9733333333333336E-005     0.0000000000000000     
  -1.9533333333333335E-005     0.0000000000000000     
  -1.9333333333333333E-005     0.0000000000000000     
  -1.9133333333333335E-005     0.0000000000000000     
  -1.8933333333333337E-005     0.0000000000000000     
  -1.8733333333333336E-005     0.0000000000000000     
  -1.8533333333333334E-005     0.0000000000000000     
  -1.8333333333333336E-005     0.0000000000000000     
  -1.8133333333333335E-005     0.0000000000000000     
  -1.7933333333333337E-005     0.0000000000000000     
  -1.7733333333333335E-005     0.0000000000000000     
  -1.7533333333333337E-005     0.0000000000000000     
  -1.7333333333333336E-005     0.0000000000000000     
  -1.7133333333333334E-005     0.0000000000000000     
  -1.6933333333333336E-005     0.0000000000000000     
  -1.6733333333333335E-005     0.0000000000000000     
  -1.6533333333333337E-005     0.0000000000000000     
  -1.6333333333333335E-005     0.0000000000000000     
  -1.6133333333333337E-005     0.0000000000000000     
  -1.5933333333333336E-005     0.0000000000000000     
  -1.5733333333333334E-005     0.0000000000000000     
  -1.5533333333333336E-005     0.0000000000000000     
  -1.5333333333333334E-005     0.0000000000000000     
  -1.5133333333333336E-005     0.0000000000000000     
  -1.4933333333333335E-005     0.0000000000000000     
  -1.4733333333333337E-005     0.0000000000000000     
  -1.4533333333333335E-005     0.0000000000000000     
  -1.4333333333333337E-005     0.0000000000000000     
  -1.4133333333333336E-005     0.0000000000000000     
  -1.3933333333333334E-005     0.0000000000000000     
  -1.3733333333333336E-005     0.0000000000000000     
  -1.3533333333333335E-005     0.0000000000000000     
  -1.3333333333333337E-005     0.0000000000000000     
  -1.3133333333333335E-005     0.0000000000000000     
  -1.2933333333333337E-005     0.0000000000000000     
  -1.2733333333333336E-005     0.0000000000000000     
  -1.2533333333333338E-005     0.0000000000000000     
  -1.2333333333333336E-005     0.0000000000000000     
  -1.2133333333333335E-005     0.0000000000000000     
  -1.1933333333333337E-005     0.0000000000000000     
  -1.1733333333333335E-005     0.0000000000000000     
  -1.1533333333333337E-005     0.0000000000000000     
  -1.1333333333333336E-005     0.0000000000000000     
  -1.1133333333333337E-005     0.0000000000000000     
  -1.0933333333333336E-005     0.0000000000000000     
  -1.0733333333333334E-005     0.0000000000000000     
  -1.0533333333333336E-005     0.0000000000000000     
  -1.0333333333333335E-005     0.0000000000000000     
  -1.0133333333333337E-005     0.0000000000000000     
  -9.9333333333333354E-006     0.0000000000000000     
  -9.7333333333333373E-006     0.0000000000000000     
  -9.5333333333333358E-006     0.0000000000000000     
  -9.3333333333333343E-006     0.0000000000000000     
  -9.1333333333333362E-006     0.0000000000000000     
  -8.9333333333333348E-006     0.0000000000000000     
  -8.7333333333333367E-006     0.0000000000000000     
  -8.5333333333333352E-006     0.0000000000000000     
  -8.3333333333333371E-006     0.0000000000000000     
  -8.1333333333333356E-006     0.0000000000000000     
  -7.9333333333333376E-006     0.0000000000000000     
  -7.7333333333333361E-006     0.0000000000000000     
  -7.5333333333333346E-006     0.0000000000000000     
  -7.3333333333333365E-006     0.0000000000000000     
  -7.1333333333333351E-006     0.0000000000000000     
  -6.9333333333333370E-006     0.0000000000000000     
  -6.7333333333333355E-006     0.0000000000000000     
  -6.5333333333333374E-006     0.0000000000000000     
  -6.3333333333333359E-006     0.0000000000000000     
  -6.1333333333333379E-006     0.0000000000000000     
  -5.9333333333333364E-006     0.0000000000000000     
  -5.7333333333333349E-006     0.0000000000000000     
  -5.5333333333333368E-006     0.0000000000000000     
  -5.3333333333333354E-006     0.0000000000000000     
  -5.1333333333333373E-006     0.0000000000000000     
  -4.9333333333333358E-006     0.0000000000000000     
  -4.7333333333333377E-006     0.0000000000000000     
  -4.5333333333333362E-006     0.0000000000000000     
  -4.3333333333333348E-006     0.0000000000000000     
  -4.1333333333333367E-006     0.0000000000000000     
  -3.9333333333333352E-006     0.0000000000000000     
  -3.7333333333333371E-006     0.0000000000000000     
  -3.5333333333333356E-006     0.0000000000000000     
  -3.3333333333333376E-006     0.0000000000000000     
  -3.1333333333333361E-006     0.0000000000000000     
  -2.9333333333333346E-006     0.0000000000000000     
  -2.7333333333333365E-006     0.0000000000000000     
  -2.5333333333333384E-006     0.0000000000000000     
  -2.3333333333333336E-006     0.0000000000000000     
  -2.1333333333333355E-006     0.0000000000000000     
  -1.9333333333333374E-006     0.0000000000000000     
  -1.7333333333333393E-006     0.0000000000000000     
  -1.5333333333333345E-006     0.0000000000000000     
  -1.3333333333333364E-006     0.0000000000000000     
  -1.1333333333333383E-006     0.0000000000000000     
  -9.3333333333333343E-007     0.0000000000000000     
  -7.3333333333333535E-007     0.0000000000000000     
  -5.3333333333333726E-007     0.0000000000000000     
  -3.3333333333333918E-007     0.0000000000000000     
  -1.3333333333333432E-007     0.0000000000000000     
   6.6666666666663770E-008     0.0000000000000000     
   2.6666666666666185E-007     0.0000000000000000     
   4.6666666666666672E-007     0.0000000000000000     
   6.6666666666666480E-007     0.0000000000000000     
   8.6666666666666289E-007     0.0000000000000000     
   1.0666666666666610E-006     0.0000000000000000     
   1.2666666666666658E-006     0.0000000000000000     
   1.4666666666666639E-006     0.0000000000000000     
   1.6666666666666620E-006     0.0000000000000000     
   1.8666666666666669E-006     0.0000000000000000     
   2.0666666666666649E-006     0.0000000000000000     
   2.2666666666666630E-006     0.0000000000000000     
   2.4666666666666611E-006     0.0000000000000000     
   2.6666666666666660E-006     0.0000000000000000     
   2.8666666666666641E-006     0.0000000000000000     
   3.0666666666666622E-006     0.0000000000000000     
   3.2666666666666602E-006     0.0000000000000000     
   3.4666666666666651E-006     0.0000000000000000     
   3.6666666666666632E-006     0.0000000000000000     
   3.8666666666666613E-006     0.0000000000000000     
   4.0666666666666661E-006     0.0000000000000000     
   4.2666666666666642E-006     0.0000000000000000     
   4.4666666666666623E-006     0.0000000000000000     
   4.6666666666666604E-006     0.0000000000000000     
   4.8666666666666652E-006     0.0000000000000000     
   5.0666666666666633E-006     0.0000000000000000     
   5.2666666666666614E-006     0.0000000000000000     
   5.4666666666666663E-006     0.0000000000000000     
   5.6666666666666644E-006     0.0000000000000000     
   5.8666666666666624E-006     0.0000000000000000     
   6.0666666666666605E-006     0.0000000000000000     
   6.2666666666666654E-006     0.0000000000000000     
   6.4666666666666635E-006     0.0000000000000000     
   6.6666666666666616E-006     0.0000000000000000     
   6.8666666666666664E-006     0.0000000000000000     
   7.0666666666666645E-006     0.0000000000000000     
   7.2666666666666626E-006     0.0000000000000000     
   7.4666666666666607E-006     0.0000000000000000     
   7.6666666666666655E-006     0.0000000000000000     
   7.8666666666666636E-006     0.0000000000000000     
   8.0666666666666617E-006     0.0000000000000000     
   8.2666666666666598E-006     1.3289501734656261E-035
   8.4666666666666647E-006     3.1454346200333175E-035
   8.6666666666666627E-006     5.2483406342722480E-035
   8.8666666666666608E-006     8.8682559725865488E-035
   9.0666666666666657E-006     1.2759177286091231E-034
   9.2666666666666638E-006     1.5414182805992028E-034
   9.4666666666666619E-006     1.8085008138049741E-034
   9.6666666666666599E-006     1.9085406636009798E-034
   9.8666666666666648E-006     1.7206432869574364E-034
   1.0066666666666663E-005     1.2564630675142738E-034
   1.0266666666666661E-005     5.5411271192920497E-035
   1.0466666666666666E-005    -3.6593107572646006E-035
   1.0666666666666664E-005    -1.4514640345800080E-034
   1.0866666666666662E-005    -2.5808403211473053E-034
   1.1066666666666660E-005    -3.7395313016488248E-034
   1.1266666666666665E-005    -4.8126616758560881E-034
   1.1466666666666663E-005    -5.9203580124622579E-034
   1.1666666666666661E-005    -7.0739091898325549E-034
   1.1866666666666666E-005    -8.1838541185621531E-034
   1.2066666666666664E-005    -9.2571704596491364E-034
   1.2266666666666662E-005    -9.6795375185140848E-034
   1.2466666666666660E-005    -8.5734753945620466E-034
   1.2666666666666665E-005    -5.2016603071920305E-034
   1.2866666666666663E-005     1.8960655002141379E-034
   1.3066666666666661E-005     1.3542431442151939E-033
   1.3266666666666666E-005     2.9987444963232119E-033
   1.3466666666666664E-005     5.0263095189924659E-033
   1.3666666666666662E-005     7.1753211078589092E-033
   1.3866666666666660E-005     8.9941194358480788E-033
   1.4066666666666665E-005     9.8603610594361926E-033
   1.4266666666666663E-005     9.0561598236325713E-033
   1.4466666666666661E-005     5.9061457347478395E-033
   1.4666666666666666E-005    -3.1132092574455529E-035
   1.4866666666666664E-005    -8.7453789537423286E-033
   1.5066666666666662E-005    -1.9577551315046046E-032
   1.5266666666666661E-005    -3.1102978081902931E-032
   1.5466666666666665E-005    -4.1157710070983466E-032
   1.5666666666666663E-005    -4.7056217296502868E-032
   1.5866666666666662E-005    -4.6017641588928484E-032
   1.6066666666666660E-005    -3.5769008867943936E-032
   1.6266666666666665E-005    -1.5235633708885517E-032
   1.6466666666666663E-005     1.4824198931154208E-032
   1.6666666666666661E-005     5.1417163217467333E-032
   1.6866666666666666E-005     8.9321084354223568E-032
   1.7066666666666664E-005     1.2162438028890228E-031
   1.7266666666666662E-005     1.4082384707031778E-031
   1.7466666666666660E-005     1.4036460493733853E-031
   1.7666666666666665E-005     1.1635281709792219E-031
   1.7866666666666663E-005     6.9042055315956383E-032
   1.8066666666666661E-005     3.6347545310432417E-033
   1.8266666666666666E-005    -7.0009263822756470E-032
   1.8466666666666664E-005    -1.3898210603133644E-031
   1.8666666666666662E-005    -1.9017224014735771E-031
   1.8866666666666660E-005    -2.1387644813493789E-031
   1.9066666666666665E-005    -2.0733362306837402E-031
   1.9266666666666663E-005    -1.7707825575928264E-031
   1.9466666666666661E-005    -1.3899154525097354E-031
   1.9666666666666666E-005    -1.1523573306139226E-031
   1.9866666666666664E-005    -1.2791696611806310E-031
   2.0066666666666662E-005    -1.9026666760855926E-031
   2.0266666666666660E-005    -2.9718756488929709E-031
   2.0466666666666665E-005    -4.1791170458456562E-031
   2.0666666666666663E-005    -4.9394775733134673E-031
   2.0866666666666661E-005    -4.4515782986543896E-031
   2.1066666666666659E-005    -1.8552198449550474E-031
   2.1266666666666664E-005     3.5205602066308093E-031
   2.1466666666666662E-005     1.1853924834539515E-030
   2.1666666666666660E-005     2.2535135127297567E-030
   2.1866666666666665E-005     3.3965963809947876E-030
   2.2066666666666663E-005     4.3546099829036459E-030
   2.2266666666666661E-005     4.7922843336131060E-030
   2.2466666666666659E-005     4.3538162891179707E-030
   2.2666666666666664E-005     2.7441262985482725E-030
   2.2866666666666662E-005    -1.7448357532376910E-031
   2.3066666666666660E-005    -4.2891603382408222E-030
   2.3266666666666665E-005    -9.1711384643244952E-030
   2.3466666666666663E-005    -1.4063450408266021E-029
   2.3666666666666661E-005    -1.7941853523719348E-029
   2.3866666666666660E-005    -1.9657399695806584E-029
   2.4066666666666664E-005    -1.8151683591160338E-029
   2.4266666666666662E-005    -1.2715624447873071E-029
   2.4466666666666661E-005    -3.2437602982127389E-030
   2.4666666666666665E-005     9.5761931289172811E-030
   2.4866666666666663E-005     2.4199700955745572E-029
   2.5066666666666662E-005     3.8334868180315713E-029
   2.5266666666666660E-005     4.9243049505098897E-029
   2.5466666666666665E-005     5.4207440881841884E-029
   2.5666666666666663E-005     5.1100626992053614E-029
   2.5866666666666661E-005     3.8941713659464440E-029
   2.6066666666666666E-005     1.8310556260611825E-029
   2.6266666666666664E-005    -8.5087607512519616E-030
   2.6466666666666662E-005    -3.7745280839028018E-029
   2.6666666666666660E-005    -6.4739436930972093E-029
   2.6866666666666665E-005    -8.4850298336817420E-029
   2.7066666666666663E-005    -9.4503919868030144E-029
   2.7266666666666661E-005    -9.2139690398017907E-029
   2.7466666666666666E-005    -7.8781542618776335E-029
   2.7666666666666664E-005    -5.7996696010361618E-029
   2.7866666666666662E-005    -3.5113422338384407E-029
   2.8066666666666667E-005    -1.5742346735364675E-029
   2.8266666666666658E-005    -3.8537790478713982E-030
   2.8466666666666663E-005     1.3904672295580114E-031
   2.8666666666666668E-005     7.1037342953525187E-031
   2.8866666666666659E-005     7.3751523674545583E-030
   2.9066666666666664E-005     3.3222156123730604E-029
   2.9266666666666669E-005     9.1695643175215125E-029
   2.9466666666666660E-005     1.9193679399548440E-028
   2.9666666666666665E-005     3.3349219953664659E-028
   2.9866666666666656E-005     5.0163281702945208E-028
   3.0066666666666661E-005     6.6477863150798648E-028
   3.0266666666666666E-005     7.7546750690525687E-028
   3.0466666666666657E-005     7.7587777813165996E-028
   3.0666666666666662E-005     6.0810178732557559E-028
   3.0866666666666667E-005     2.2827363925691649E-028
   3.1066666666666658E-005    -3.7754527108320399E-028
   3.1266666666666663E-005    -1.1788613337734382E-027
   3.1466666666666668E-005    -2.0913648229011717E-027
   3.1666666666666659E-005    -2.9763126841635960E-027
   3.1866666666666664E-005    -3.6513852186313378E-027
   3.2066666666666656E-005    -3.9139299145801502E-027
   3.2266666666666660E-005    -3.5750737112588935E-027
   3.2466666666666665E-005    -2.5005001358230630E-027
   3.2666666666666657E-005    -6.5127001443330858E-028
   3.2866666666666661E-005     1.8834622261485251E-027
   3.3066666666666666E-005     4.8701448875046797E-027
   3.3266666666666658E-005     7.9376709619854163E-027
   3.3466666666666662E-005     1.0610836302519634E-026
   3.3666666666666667E-005     1.2369261956667690E-026
   3.3866666666666659E-005     1.2725445751698598E-026
   3.4066666666666664E-005     1.1310788577787953E-026
   3.4266666666666668E-005     7.9551892207595626E-027
   3.4466666666666660E-005     2.7449597718150960E-027
   3.4666666666666665E-005    -3.9539580573583056E-027
   3.4866666666666656E-005    -1.1515324648997811E-026
   3.5066666666666661E-005    -1.9114806934980695E-026
   3.5266666666666666E-005    -2.5826984021449225E-026
   3.5466666666666657E-005    -3.0741478068155287E-026
   3.5666666666666662E-005    -3.3077668068551937E-026
   3.5866666666666667E-005    -3.2276826338332881E-026
   3.6066666666666658E-005    -2.8054895158884513E-026
   3.6266666666666663E-005    -2.0408059648172991E-026
   3.6466666666666668E-005    -9.5755457275664753E-027
   3.6666666666666659E-005     4.0236224101206918E-027
   3.6866666666666664E-005     1.9853277809136759E-026
   3.7066666666666669E-005     3.7292074254521595E-026
   3.7266666666666660E-005     5.5609479940535887E-026
   3.7466666666666665E-005     7.3874586613724355E-026
   3.7666666666666656E-005     9.0808398064715036E-026
   3.7866666666666661E-005     1.0461593525938738E-025
   3.8066666666666666E-005     1.1285852099091214E-025
   3.8266666666666657E-005     1.1244179289177750E-025
   3.8466666666666662E-005     9.9795039867234582E-026
   3.8666666666666667E-005     7.1297723163013344E-026
   3.8866666666666658E-005     2.3968138068884885E-026
   3.9066666666666663E-005    -4.3629015476577360E-026
   3.9266666666666668E-005    -1.3036731343419578E-025
   3.9466666666666659E-005    -2.3161113949469951E-025
   3.9666666666666664E-005    -3.3855886130825869E-025
   3.9866666666666655E-005    -4.3811263916098791E-025
   4.0066666666666660E-005    -5.1348149472954805E-025
   4.0266666666666665E-005    -5.4564424130392708E-025
   4.0466666666666656E-005    -5.1567388709657697E-025
   4.0666666666666661E-005    -4.0776821697314331E-025
   4.0866666666666666E-005    -2.1266331684887301E-025
   4.1066666666666657E-005     6.9039836851923613E-026
   4.1266666666666662E-005     4.2420299994587184E-025
   4.1466666666666667E-005     8.2571939563752548E-025
   4.1666666666666658E-005     1.2328331045783682E-024
   4.1866666666666663E-005     1.5935429089342968E-024
   4.2066666666666668E-005     1.8491617481804268E-024
   4.2266666666666660E-005     1.9407818286498318E-024
   4.2466666666666664E-005     1.8170718726321675E-024
   4.2666666666666656E-005     1.4425405349634748E-024
   4.2866666666666661E-005     8.0521330153295131E-025
   4.3066666666666665E-005    -7.7390786187327287E-026
   4.3266666666666657E-005    -1.1549895923501298E-024
   4.3466666666666662E-005    -2.3447300852970556E-024
   4.3666666666666666E-005    -3.5352119102796628E-024
   4.3866666666666658E-005    -4.5942604365520394E-024
   4.4066666666666663E-005    -5.3799122556106121E-024
   4.4266666666666667E-005    -5.7536887520006215E-024
   4.4466666666666659E-005    -5.5949754598964905E-024
   4.4666666666666664E-005    -4.8152412809184332E-024
   4.4866666666666655E-005    -3.3708835062521686E-024
   4.5066666666666660E-005    -1.2737142432696367E-024
   4.5266666666666665E-005     1.4016586074113011E-024
   4.5466666666666656E-005     4.5140309159083468E-024
   4.5666666666666661E-005     7.8557261742368854E-024
   4.5866666666666666E-005     1.1156966278762975E-023
   4.6066666666666657E-005     1.4094965913149187E-023
   4.6266666666666662E-005     1.6308455970657791E-023
   4.6466666666666667E-005     1.7418544191928419E-023
   4.6666666666666658E-005     1.7056838845110102E-023
   4.6866666666666663E-005     1.4901415261113006E-023
   4.7066666666666668E-005     1.0720311257339609E-023
   4.7266666666666659E-005     4.4208522435054514E-024
   4.7466666666666664E-005    -3.8988763931560966E-024
   4.7666666666666655E-005    -1.3902294525658007E-023
   4.7866666666666660E-005    -2.4978384417835008E-023
   4.8066666666666665E-005    -3.6227149651277646E-023
   4.8266666666666656E-005    -4.6476500693008544E-023
   4.8466666666666661E-005    -5.4339497009347946E-023
   4.8666666666666666E-005    -5.8317552160421981E-023
   4.8866666666666657E-005    -5.6950109112875670E-023
   4.9066666666666662E-005    -4.9004269779713578E-023
   4.9266666666666667E-005    -3.3689759616972537E-023
   4.9466666666666658E-005    -1.0876523860374189E-023
   4.9666666666666663E-005     1.8714376024220577E-023
   4.9866666666666655E-005     5.3380046511094701E-023
   5.0066666666666659E-005     9.0398417339421780E-023
   5.0266666666666664E-005     1.2611242874907126E-022
   5.0466666666666656E-005     1.5615336273604194E-022
   5.0666666666666660E-005     1.7580573066417194E-022
   5.0866666666666665E-005     1.8049716850905544E-022
   5.1066666666666657E-005     1.6637635635720760E-022
   5.1266666666666661E-005     1.3092373558622491E-022
   5.1466666666666666E-005     7.3523975757373260E-023
   5.1666666666666658E-005    -4.0774208595565787E-024
   5.1866666666666662E-005    -9.7510705219360280E-023
   5.2066666666666667E-005    -1.9977633580925625E-022
   5.2266666666666659E-005    -3.0154156352797794E-022
   5.2466666666666664E-005    -3.9175254120543196E-022
   5.2666666666666655E-005    -4.5854103953829821E-022
   5.2866666666666660E-005    -4.9036760120500373E-022
   5.3066666666666665E-005    -4.7730987063080620E-022
   5.3266666666666656E-005    -4.1237750520993981E-022
   5.3466666666666661E-005    -2.9272012961078759E-022
   5.3666666666666666E-005    -1.2059171507707047E-022
   5.3866666666666657E-005     9.6055559771815118E-023
   5.4066666666666662E-005     3.4344969183276108E-022
   5.4266666666666667E-005     6.0241891879553427E-022
   5.4466666666666658E-005     8.4938019341145460E-022
   5.4666666666666663E-005     1.0578787812340096E-021
   5.4866666666666668E-005     1.2006150967198567E-021
   5.5066666666666659E-005     1.2518529378002822E-021
   5.5266666666666664E-005     1.1900623844838576E-021
   5.5466666666666655E-005     1.0006179303442365E-021
   5.5666666666666660E-005     6.7834267884634950E-022
   5.5866666666666665E-005     2.2966924162508401E-022
   5.6066666666666656E-005    -3.2582714505529889E-022
   5.6266666666666661E-005    -9.5476837527793052E-022
   5.6466666666666666E-005    -1.6104189716255055E-021
   5.6666666666666657E-005    -2.2344331407171950E-021
   5.6866666666666662E-005    -2.7600367477994950E-021
   5.7066666666666667E-005    -3.1166822524193035E-021
   5.7266666666666658E-005    -3.2360834312399889E-021
   5.7466666666666663E-005    -3.0593705105348127E-021
   5.7666666666666654E-005    -2.5449293988573604E-021
   5.7866666666666659E-005    -1.6762829249774527E-021
   5.8066666666666664E-005    -4.6920653995108216E-022
   5.8266666666666655E-005     1.0228670895328347E-021
   5.8466666666666660E-005     2.7061581285745261E-021
   5.8666666666666665E-005     4.4475150857696484E-021
   5.8866666666666656E-005     6.0798344517112231E-021
   5.9066666666666661E-005     7.4123832405461538E-021
   5.9266666666666666E-005     8.2460262016347520E-021
   5.9466666666666657E-005     8.3928039083360315E-021
   5.9666666666666662E-005     7.6986418546584868E-021
   5.9866666666666667E-005     6.0673605034504381E-021
   6.0066666666666659E-005     3.4835338248606952E-021
   6.0266666666666663E-005     3.1359385616859146E-023
   6.0466666666666655E-005    -4.0935173265138982E-021
   6.0666666666666660E-005    -8.5821151775113024E-021
   6.0866666666666664E-005    -1.3022581456615777E-020
   6.1066666666666656E-005    -1.6924485302288608E-020
   6.1266666666666661E-005    -1.9757223471113271E-020
   6.1466666666666665E-005    -2.1001110857524091E-020
   6.1666666666666657E-005    -2.0208106375201429E-020
   6.1866666666666662E-005    -1.7067238581439361E-020
   6.2066666666666666E-005    -1.1468168529547990E-020
   6.2266666666666658E-005    -3.5552024818105228E-021
   6.2466666666666663E-005     6.2366275869522866E-021
   6.2666666666666668E-005     1.7171447182749703E-020
   6.2866666666666659E-005     2.8235199517560988E-020
   6.3066666666666664E-005     3.8195513917859275E-020
   6.3266666666666655E-005     4.5699883843047874E-020
   6.3466666666666660E-005     4.9408813075719332E-020
   6.3666666666666665E-005     4.8155905866339989E-020
   6.3866666666666656E-005     4.1121603942454523E-020
   6.4066666666666661E-005     2.8002871625358692E-020
   6.4266666666666666E-005     9.1576414367728434E-021
   6.4466666666666657E-005    -1.4299429243938708E-020
   6.4666666666666662E-005    -4.0471708168452069E-020
   6.4866666666666667E-005    -6.6745255325692088E-020
   6.5066666666666658E-005    -8.9955258304985274E-020
   6.5266666666666663E-005    -1.0665664233319325E-019
   6.5466666666666654E-005    -1.1348893447303105E-019
   6.5666666666666659E-005    -1.0761140909288404E-019
   6.5866666666666664E-005    -8.7169675893424668E-020
   6.6066666666666655E-005    -5.1743507736430378E-020
   6.6266666666666660E-005    -2.7138719512936882E-021
   6.6466666666666665E-005     5.6515254196307372E-020
   6.6666666666666656E-005     1.2050053093533678E-019
   6.6866666666666661E-005     1.8200000068667364E-019
   6.7066666666666666E-005     2.3249873084818242E-019
   6.7266666666666657E-005     2.6301766294590295E-019
   6.7466666666666662E-005     2.6516923726733580E-019
   6.7666666666666667E-005     2.3237969438815721E-019
   6.7866666666666658E-005     1.6116197688796747E-019
   6.8066666666666663E-005     5.2283850546883572E-020
   6.8266666666666655E-005    -8.8343038054679674E-020
   6.8466666666666659E-005    -2.4923373201347243E-019
   6.8666666666666664E-005    -4.1352824188117822E-019
   6.8866666666666656E-005    -5.5993747839365658E-019
   6.9066666666666660E-005    -6.6449238403732330E-019
   6.9266666666666665E-005    -7.0306112766368018E-019
   6.9466666666666657E-005    -6.5449083985336807E-019
   6.9666666666666661E-005    -5.0411002487668705E-019
   6.9866666666666666E-005    -2.4722533748619368E-019
   7.0066666666666658E-005     1.0784013099460349E-019
   7.0266666666666662E-005     5.3768140853109311E-019
   7.0466666666666654E-005     1.0032140560837798E-018
   7.0666666666666659E-005     1.4509715745496792E-018
   7.0866666666666664E-005     1.8165909887672522E-018
   7.1066666666666655E-005     2.0305596589727221E-018
   7.1266666666666660E-005     2.0260136811212838E-018
   7.1466666666666665E-005     1.7480931962175017E-018
   7.1666666666666656E-005     1.1640110395264582E-018
   7.1866666666666661E-005     2.7272478253057758E-019
   7.2066666666666666E-005    -8.8711563819678240E-019
   7.2266666666666657E-005    -2.2323956575435705E-018
   7.2466666666666662E-005    -3.6352400028985364E-018
   7.2666666666666667E-005    -4.9283371265072636E-018
   7.2866666666666658E-005    -5.9165573966151774E-018
   7.3066666666666663E-005    -6.3948605237535523E-018
   7.3266666666666654E-005    -6.1717281399270668E-018
   7.3466666666666659E-005    -5.0966063426158632E-018
   7.3666666666666664E-005    -3.0887182566671476E-018
   7.3866666666666655E-005    -1.6429081340434344E-019
   7.4066666666666660E-005     3.5418620650892627E-018
   7.4266666666666665E-005     7.7639346002155814E-018
   7.4466666666666656E-005     1.2105984306518735E-017
   7.4666666666666661E-005     1.6058707395453393E-017
   7.4866666666666666E-005     1.9033907313961673E-017
   7.5066666666666657E-005     2.0416736576829846E-017
   7.5266666666666662E-005     1.9633451130662557E-017
   7.5466666666666653E-005     1.6230524389209233E-017