  -3.3333333333333335E-005     0.0000000000000000     
  -3.3133333333333337E-005     0.0000000000000000     
  -3.2933333333333332E-005     0.0000000000000000     
  -3.2733333333333334E-005     0.0000000000000000     
  -3.2533333333333336E-005     0.0000000000000000     
  -3.2333333333333338E-005     0.0000000000000000     
  -3.2133333333333333E-005     0.0000000000000000     
  -3.1933333333333335E-005     0.0000000000000000     
  -3.1733333333333337E-005     0.0000000000000000     
  -3.1533333333333332E-005     0.0000000000000000     
  -3.1333333333333334E-005     0.0000000000000000     
  -3.1133333333333336E-005     0.0000000000000000     
  -3.0933333333333338E-005     0.0000000000000000     
  -3.0733333333333333E-005     0.0000000000000000     
  -3.0533333333333335E-005     0.0000000000000000     
  -3.0333333333333337E-005     0.0000000000000000     
  -3.0133333333333335E-005     0.0000000000000000     
  -2.9933333333333334E-005     0.0000000000000000     
  -2.9733333333333336E-005     0.0000000000000000     
  -2.9533333333333334E-005     0.0000000000000000     
  -2.9333333333333336E-005     0.0000000000000000     
  -2.9133333333333334E-005     0.0000000000000000     
  -2.8933333333333336E-005     0.0000000000000000     
  -2.8733333333333335E-005     0.0000000000000000     
  -2.8533333333333333E-005     0.0000000000000000     
  -2.8333333333333335E-005     0.0000000000000000     
  -2.8133333333333337E-005     0.0000000000000000     
  -2.7933333333333336E-005     0.0000000000000000     
  -2.7733333333333334E-005     0.0000000000000000     
  -2.7533333333333336E-005     0.0000000000000000     
  -2.7333333333333335E-005     0.0000000000000000     
  -2.7133333333333333E-005     0.0000000000000000     
  -2.6933333333333335E-005     0.0000000000000000     
  -2.6733333333333337E-005     0.0000000000000000     
  -2.6533333333333336E-005     0.0000000000000000     
  -2.6333333333333334E-005     0.0000000000000000     
  -2.6133333333333336E-005     0.0000000000000000     
  -2.5933333333333335E-005     0.0000000000000000     
  -2.5733333333333333E-005     0.0000000000000000     
  -2.5533333333333335E-005     0.0000000000000000     
  -2.5333333333333337E-005     0.0000000000000000     
  -2.5133333333333336E-005     0.0000000000000000     
  -2.4933333333333334E-005     0.0000000000000000     
  -2.4733333333333336E-005     0.0000000000000000     
  -2.4533333333333334E-005     0.0000000000000000     
  -2.4333333333333333E-005     0.0000000000000000     
  -2.4133333333333335E-005     0.0000000000000000     
  -2.3933333333333337E-005     0.0000000000000000     
  -2.3733333333333335E-005     0.0000000000000000     
  -2.3533333333333334E-005     0.0000000000000000     
  -2.3333333333333336E-005     0.0000000000000000     
  -2.3133333333333338E-005     0.0000000000000000     
  -2.2933333333333336E-005     0.0000000000000000     
  -2.2733333333333335E-005     0.0000000000000000     
  -2.2533333333333337E-005     0.0000000000000000     
  -2.2333333333333335E-005     0.0000000000000000     
  -2.2133333333333334E-005     0.0000000000000000     
  -2.1933333333333336E-005     0.0000000000000000     
  -2.1733333333333338E-005     0.0000000000000000     
  -2.1533333333333336E-005     0.0000000000000000     
  -2.1333333333333335E-005     0.0000000000000000     
  -2.1133333333333337E-005     0.0000000000000000     
  -2.0933333333333335E-005     0.0000000000000000     
  -2.0733333333333334E-005     0.0000000000000000     
  -2.0533333333333336E-005     0.0000000000000000     
  -2.0333333333333337E-005     0.0000000000000000     
  -2.0133333333333336E-005     0.0000000000000000     
  -1.9933333333333334E-005     0.0000000000000000     
  -1.9733333333333336E-005     0.0000000000000000     
  -1.9533333333333335E-005     0.0000000000000000     
  -1.9333333333333333E-005     0.0000000000000000     
  -1.9133333333333335E-005     0.0000000000000000     
  -1.8933333333333337E-005     0.0000000000000000     
  -1.8733333333333336E-005     0.0000000000000000     
  -1.8533333333333334E-005     0.0000000000000000     
  -1.8333333333333336E-005     0.0000000000000000     
  -1.8133333333333335E-005     0.0000000000000000     
  -1.7933333333333337E-005     0.0000000000000000     
  -1.7733333333333335E-005     0.0000000000000000     
  -1.7533333333333337E-005     0.0000000000000000     
  -1.7333333333333336E-005     0.0000000000000000     
  -1.7133333333333334E-005     0.0000000000000000     
  -1.6933333333333336E-005     0.0000000000000000     
  -1.6733333333333335E-005     0.0000000000000000     
  -1.6533333333333337E-005     0.0000000000000000     
  -1.6333333333333335E-005     0.0000000000000000     
  -1.6133333333333337E-005     0.0000000000000000     
  -1.5933333333333336E-005     0.0000000000000000     
  -1.5733333333333334E-005     0.0000000000000000     
  -1.5533333333333336E-005     0.0000000000000000     
  -1.5333333333333334E-005     0.0000000000000000     
  -1.5133333333333336E-005     0.0000000000000000     
  -1.4933333333333335E-005     0.0000000000000000     
  -1.4733333333333337E-005     0.0000000000000000     
  -1.4533333333333335E-005     0.0000000000000000     
  -1.4333333333333337E-005     0.0000000000000000     
  -1.4133333333333336E-005     0.0000000000000000     
  -1.3933333333333334E-005     0.0000000000000000     
  -1.3733333333333336E-005     0.0000000000000000     
  -1.3533333333333335E-005     0.0000000000000000     
  -1.3333333333333337E-005     0.0000000000000000     
  -1.3133333333333335E-005     0.0000000000000000     
  -1.2933333333333337E-005     0.0000000000000000     
  -1.2733333333333336E-005     0.0000000000000000     
  -1.2533333333333338E-005     0.0000000000000000     
  -1.2333333333333336E-005     0.0000000000000000     
  -1.2133333333333335E-005     0.0000000000000000     
  -1.1933333333333337E-005     0.0000000000000000     
  -1.1733333333333335E-005     0.0000000000000000     
  -1.1533333333333337E-005     0.0000000000000000     
  -1.1333333333333336E-005     0.0000000000000000     
  -1.1133333333333337E-005     0.0000000000000000     
  -1.0933333333333336E-005     0.0000000000000000     
  -1.0733333333333334E-005     0.0000000000000000     
  -1.0533333333333336E-005     0.0000000000000000     
  -1.0333333333333335E-005     0.0000000000000000     
  -1.0133333333333337E-005     0.0000000000000000     
  -9.9333333333333354E-006     0.0000000000000000     
  -9.7333333333333373E-006     0.0000000000000000     
  -9.5333333333333358E-006     0.0000000000000000     
  -9.3333333333333343E-006     0.0000000000000000     
  -9.1333333333333362E-006     0.0000000000000000     
  -8.9333333333333348E-006     0.0000000000000000     
  -8.7333333333333367E-006     0.0000000000000000     
  -8.5333333333333352E-006     0.0000000000000000     
  -8.3333333333333371E-006     0.0000000000000000     
  -8.1333333333333356E-006     0.0000000000000000     
  -7.9333333333333376E-006     0.0000000000000000     
  -7.7333333333333361E-006     0.0000000000000000     
  -7.5333333333333346E-006     0.0000000000000000     
  -7.3333333333333365E-006     0.0000000000000000     
  -7.1333333333333351E-006     0.0000000000000000     
  -6.9333333333333370E-006     0.0000000000000000     
  -6.7333333333333355E-006     0.0000000000000000     
  -6.5333333333333374E-006     0.0000000000000000     
  -6.3333333333333359E-006     0.0000000000000000     
  -6.1333333333333379E-006     0.0000000000000000     
  -5.9333333333333364E-006     0.0000000000000000     
  -5.7333333333333349E-006     0.0000000000000000     
  -5.5333333333333368E-006     0.0000000000000000     
  -5.3333333333333354E-006     0.0000000000000000     
  -5.1333333333333373E-006     0.0000000000000000     
  -4.9333333333333358E-006     0.0000000000000000     
  -4.7333333333333377E-006     0.0000000000000000     
  -4.5333333333333362E-006     0.0000000000000000     
  -4.3333333333333348E-006     0.0000000000000000     
  -4.1333333333333367E-006     0.0000000000000000     
  -3.9333333333333352E-006     0.0000000000000000     
  -3.7333333333333371E-006     0.0000000000000000     
  -3.5333333333333356E-006     0.0000000000000000     
  -3.3333333333333376E-006     0.0000000000000000     
  -3.1333333333333361E-006     0.0000000000000000     
  -2.9333333333333346E-006     0.0000000000000000     
  -2.7333333333333365E-006     0.0000000000000000     
  -2.5333333333333384E-006     0.0000000000000000     
  -2.3333333333333336E-006     0.0000000000000000     
  -2.1333333333333355E-006     0.0000000000000000     
  -1.9333333333333374E-006     0.0000000000000000     
  -1.7333333333333393E-006     0.0000000000000000     
  -1.5333333333333345E-006     0.0000000000000000     
  -1.3333333333333364E-006     0.0000000000000000     
  -1.1333333333333383E-006     0.0000000000000000     
  -9.3333333333333343E-007     0.0000000000000000     
  -7.3333333333333535E-007     0.0000000000000000     
  -5.3333333333333726E-007     0.0000000000000000     
  -3.3333333333333918E-007     0.0000000000000000     
  -1.3333333333333432E-007     0.0000000000000000     
   6.6666666666663770E-008     0.0000000000000000     
   2.6666666666666185E-007     0.0000000000000000     
   4.6666666666666672E-007     0.0000000000000000     
   6.6666666666666480E-007     0.0000000000000000     
   8.6666666666666289E-007     0.0000000000000000     
   1.0666666666666610E-006     0.0000000000000000     
   1.2666666666666658E-006     0.0000000000000000     
   1.4666666666666639E-006     0.0000000000000000     
   1.6666666666666620E-006     0.0000000000000000     
   1.8666666666666669E-006     0.0000000000000000     
   2.0666666666666649E-006     0.0000000000000000     
   2.2666666666666630E-006     0.0000000000000000     
   2.4666666666666611E-006     0.0000000000000000     
   2.6666666666666660E-006     0.0000000000000000     
   2.8666666666666641E-006     0.0000000000000000     
   3.0666666666666622E-006     0.0000000000000000     
   3.2666666666666602E-006     0.0000000000000000     
   3.4666666666666651E-006     0.0000000000000000     
   3.6666666666666632E-006     0.0000000000000000     
   3.8666666666666613E-006     0.0000000000000000     
   4.0666666666666661E-006     0.0000000000000000     
   4.2666666666666642E-006     0.0000000000000000     
   4.4666666666666623E-006     0.0000000000000000     
   4.6666666666666604E-006     0.0000000000000000     
   4.8666666666666652E-006     0.0000000000000000     
   5.0666666666666633E-006     0.0000000000000000     
   5.2666666666666614E-006     0.0000000000000000     
   5.4666666666666663E-006     0.0000000000000000     
   5.6666666666666644E-006     0.0000000000000000     
   5.8666666666666624E-006     0.0000000000000000     
   6.0666666666666605E-006     0.0000000000000000     
   6.2666666666666654E-006     0.0000000000000000     
   6.4666666666666635E-006     0.0000000000000000     
   6.6666666666666616E-006     0.0000000000000000     
   6.8666666666666664E-006     0.0000000000000000     
   7.0666666666666645E-006     0.0000000000000000     
   7.2666666666666626E-006     0.0000000000000000     
   7.4666666666666607E-006     0.0000000000000000     
   7.6666666666666655E-006     0.0000000000000000     
   7.8666666666666636E-006     0.0000000000000000     
   8.0666666666666617E-006     0.0000000000000000     
   8.2666666666666598E-006     0.0000000000000000     
   8.4666666666666647E-006     0.0000000000000000     
   8.6666666666666627E-006     0.0000000000000000     
   8.8666666666666608E-006     0.0000000000000000     
   9.0666666666666657E-006     0.0000000000000000     
   9.2666666666666638E-006     0.0000000000000000     
   9.4666666666666619E-006     0.0000000000000000     
   9.6666666666666599E-006     0.0000000000000000     
   9.8666666666666648E-006     0.0000000000000000     
   1.0066666666666663E-005     0.0000000000000000     
   1.0266666666666661E-005     0.0000000000000000     
   1.0466666666666666E-005     0.0000000000000000     
   1.0666666666666664E-005     0.0000000000000000     
   1.0866666666666662E-005     0.0000000000000000     
   1.1066666666666660E-005     0.0000000000000000     
   1.1266666666666665E-005     0.0000000000000000     
   1.1466666666666663E-005     0.0000000000000000     
   1.1666666666666661E-005     0.0000000000000000     
   1.1866666666666666E-005     0.0000000000000000     
   1.2066666666666664E-005     0.0000000000000000     
   1.2266666666666662E-005     0.0000000000000000     
   1.2466666666666660E-005     0.0000000000000000     
   1.2666666666666665E-005     0.0000000000000000     
   1.2866666666666663E-005     0.0000000000000000     
   1.3066666666666661E-005     0.0000000000000000     
   1.3266666666666666E-005     1.9560714053122407E-037
   1.3466666666666664E-005     4.6378387394343545E-037
   1.3666666666666662E-005     7.5602630539498239E-037
   1.3866666666666660E-005     9.8642318021953039E-037
   1.4066666666666665E-005     5.2155162961847373E-037
   1.4266666666666663E-005    -4.5624753385686858E-037
   1.4466666666666661E-005    -1.8016913624324699E-036
   1.4666666666666666E-005    -2.9561469544230160E-036
   1.4866666666666664E-005     9.0581303091750408E-036
   1.5066666666666662E-005     3.5200132417625320E-035
   1.5266666666666661E-005     7.2333252796695099E-035
   1.5466666666666665E-005     1.1395569400826318E-034
   1.5666666666666663E-005     1.4856615070505804E-034
   1.5866666666666662E-005     1.4601217111859324E-034
   1.6066666666666660E-005     9.9917501956249268E-035
   1.6266666666666665E-005     1.0370204131799046E-035
   1.6466666666666663E-005    -1.3708796494394429E-034
   1.6666666666666661E-005    -3.0457823160310985E-034
   1.6866666666666666E-005    -4.7655831271056555E-034
   1.7066666666666664E-005    -5.7450119078729973E-034
   1.7266666666666662E-005    -5.4923113873374184E-034
   1.7466666666666660E-005    -3.4522365792992710E-034
   1.7666666666666665E-005     5.3522163379484029E-035
   1.7866666666666663E-005     6.1825373337337838E-034
   1.8066666666666661E-005     1.2559720001574430E-033
   1.8266666666666666E-005     1.8099947936564723E-033
   1.8466666666666664E-005     2.0755104985034180E-033
   1.8666666666666662E-005     1.8439438051921892E-033
   1.8866666666666660E-005     9.6075439996559892E-034
   1.9066666666666665E-005    -6.0335094456334804E-034
   1.9266666666666663E-005    -2.6879807078352546E-033
   1.9466666666666661E-005    -4.9179796330405302E-033
   1.9666666666666666E-005    -6.6794865704225293E-033
   1.9866666666666664E-005    -7.2690844147522489E-033
   2.0066666666666662E-005    -5.9849828347796286E-033
   2.0266666666666660E-005    -2.4159184178091903E-033
   2.0466666666666665E-005     3.3660251348437432E-033
   2.0666666666666663E-005     1.0609472752488527E-032
   2.0866666666666661E-005     1.7820813211308539E-032
   2.1066666666666659E-005     2.2875352227136002E-032
   2.1266666666666664E-005     2.3436287845772828E-032
   2.1466666666666662E-005     1.7499684317711214E-032
   2.1666666666666660E-005     4.1309773489573776E-033
   2.1866666666666665E-005    -1.5811232150180912E-032
   2.2066666666666663E-005    -3.9238154244713564E-032
   2.2266666666666661E-005    -6.0802163177638624E-032
   2.2466666666666659E-005    -7.3578705316274133E-032
   2.2666666666666664E-005    -7.0456598197961891E-032
   2.2866666666666662E-005    -4.6112874263760351E-032
   2.3066666666666660E-005     7.2584838434307320E-034
   2.3266666666666665E-005     6.5358902376411926E-032
   2.3466666666666663E-005     1.3617483744247668E-031
   2.3666666666666661E-005     1.9535327851838097E-031
   2.3866666666666660E-005     2.2166713098456067E-031
   2.4066666666666664E-005     1.9533309528037735E-031
   2.4266666666666662E-005     1.0422307897088313E-031
   2.4466666666666661E-005    -4.9766063852302348E-032
   2.4666666666666665E-005    -2.4606425762712006E-031
   2.4866666666666663E-005    -4.4449019609394594E-031
   2.5066666666666662E-005    -5.8959086777074746E-031
   2.5266666666666660E-005    -6.2106778529932635E-031
   2.5466666666666665E-005    -4.8935796910890006E-031
   2.5666666666666663E-005    -1.7373335131918730E-031
   2.5866666666666661E-005     3.0139583466524088E-031
   2.6066666666666666E-005     8.5742908937679295E-031
   2.6266666666666664E-005     1.3649961712765407E-030
   2.6466666666666662E-005     1.6632976111027900E-030
   2.6666666666666660E-005     1.5954117779077742E-030
   2.6866666666666665E-005     1.0549077204561782E-030
   2.7066666666666663E-005     3.4147338003851786E-032
   2.7266666666666661E-005    -1.3392440993155625E-030
   2.7466666666666666E-005    -2.7925662578360535E-030
   2.7666666666666664E-005    -3.9370931974011825E-030
   2.7866666666666662E-005    -4.3410588840273666E-030
   2.8066666666666667E-005    -3.6404525900333230E-030
   2.8266666666666658E-005    -1.6682491694666457E-030
   2.8466666666666663E-005     1.4295546971818930E-030
   2.8666666666666668E-005     5.1298554661975014E-030
   2.8866666666666659E-005     8.5572400190708340E-030
   2.9066666666666664E-005     1.0621152311544032E-029
   2.9266666666666669E-005     1.0263797514995749E-029
   2.9466666666666660E-005     6.7837436681999253E-030
   2.9666666666666665E-005     1.6543975672145222E-031
   2.9866666666666656E-005    -8.6811991897492266E-030
   3.0066666666666661E-005    -1.7873735788998802E-029
   3.0266666666666666E-005    -2.4783763285505306E-029
   3.0466666666666657E-005    -2.6564953576040765E-029
   3.0666666666666662E-005    -2.0930329550854406E-029
   3.0866666666666667E-005    -7.0337090624390063E-030
   3.1066666666666658E-005     1.3771858596154717E-029
   3.1266666666666663E-005     3.7569058249116586E-029
   3.1466666666666668E-005     5.8152997262410795E-029
   3.1666666666666659E-005     6.8093961522795018E-029
   3.1866666666666664E-005     6.0546699479103233E-029
   3.2066666666666656E-005     3.1529964861484602E-029
   3.2266666666666660E-005    -1.7838893007965853E-029
   3.2466666666666665E-005    -7.9839377696324253E-029
   3.2666666666666657E-005    -1.4008516265867913E-028
   3.2866666666666661E-005    -1.7944015681008477E-028
   3.3066666666666666E-005    -1.7805389651023914E-028
   3.3266666666666658E-005    -1.2107772670328401E-028
   3.3466666666666662E-005    -4.9680972872531635E-030
   3.3666666666666667E-005     1.5728234483697177E-028
   3.3866666666666659E-005     3.3392418562317265E-028
   3.4066666666666664E-005     4.7698731745836055E-028
   3.4266666666666668E-005     5.3054824773199594E-028
   3.4466666666666660E-005     4.4437231977739463E-028
   3.4666666666666665E-005     1.9087401770392291E-028
   3.4866666666666656E-005    -2.1836391117281780E-028
   3.5066666666666661E-005    -7.2148951650216442E-028
   3.5266666666666666E-005    -1.2058804938527384E-027
   3.5466666666666657E-005    -1.5222094798004865E-027
   3.5666666666666662E-005    -1.5142508631947979E-027
   3.5866666666666667E-005    -1.0615063333561575E-027
   3.6066666666666658E-005    -1.2700906130126199E-028
   3.6266666666666663E-005     1.2015041069436100E-027
   3.6466666666666668E-005     2.6911454373090278E-027
   3.6666666666666659E-005     3.9773222838856449E-027
   3.6866666666666664E-005     4.6192801862965982E-027
   3.7066666666666669E-005     4.1969472458377989E-027
   3.7266666666666660E-005     2.4364244465732997E-027
   3.7466666666666665E-005    -6.6096317169516093E-028
   3.7666666666666656E-005    -4.7207944129212939E-027
   3.7866666666666661E-005    -8.9669071835653990E-027
   3.8066666666666666E-005    -1.2293911873523483E-026
   3.8266666666666657E-005    -1.3455776105165726E-026
   3.8466666666666662E-005    -1.1358533921853268E-026
   3.8666666666666667E-005    -5.4125441525564681E-027
   3.8866666666666658E-005     4.1316012131967177E-027
   3.9066666666666663E-005     1.5960506546111636E-026
   3.9266666666666668E-005     2.7687409236567962E-026
   3.9466666666666659E-005     3.6127814166028534E-026
   3.9666666666666664E-005     3.7882869442773912E-026
   3.9866666666666655E-005     3.0176385570568784E-026
   4.0066666666666660E-005     1.1805546884177412E-026
   4.0266666666666665E-005    -1.6010932014287560E-026
   4.0466666666666656E-005    -4.9146471966552400E-026
   4.0666666666666661E-005    -8.0689586788807787E-026
   4.0866666666666666E-005    -1.0184197367891173E-025
   4.1066666666666657E-005    -1.0360625493046271E-025
   4.1266666666666662E-005    -7.9074474204053451E-026
   4.1466666666666667E-005    -2.5910660284929006E-026
   4.1666666666666658E-005     5.1559178393267577E-026
   4.1866666666666663E-005     1.4131876123258799E-025
   4.2066666666666668E-005     2.2429802912475141E-025
   4.2266666666666660E-005     2.7703392298064838E-025
   4.2466666666666664E-005     2.7630267357341180E-025
   4.2666666666666656E-005     2.0514581754876280E-025
   4.2866666666666661E-005     5.9175088091304106E-026
   4.3066666666666665E-005    -1.4837232403876673E-025
   4.3266666666666657E-005    -3.8450337767539811E-025
   4.3466666666666662E-005    -5.9870169458631477E-025
   4.3666666666666666E-005    -7.3028438383047161E-025
   4.3866666666666658E-005    -7.2057355539100753E-025
   4.4066666666666663E-005    -5.2825888094040723E-025
   4.4266666666666667E-005    -1.4503888135019055E-025
   4.4466666666666659E-005     3.9230858933878440E-025
   4.4666666666666664E-005     9.9751491047480889E-025
   4.4866666666666655E-005     1.5414407169043251E-024
   4.5066666666666660E-005     1.8713273591105531E-024
   4.5266666666666665E-005     1.8415969665298099E-024
   4.5466666666666656E-005     1.3519271396167449E-024
   4.5666666666666661E-005     3.8528957617506400E-025
   4.5866666666666666E-005    -9.6345692557563638E-025
   4.6066666666666657E-005    -2.4781866150139518E-024
   4.6266666666666662E-005    -3.8391592282004134E-024
   4.6466666666666667E-005    -4.6710931221378503E-024
   4.6666666666666658E-005    -4.6185538025587731E-024
   4.6866666666666663E-005    -3.4379741540889526E-024
   4.7066666666666668E-005    -1.0885925504642613E-024
   4.7266666666666659E-005     2.2001046656688140E-024
   4.7466666666666664E-005     5.9073509677286224E-024
   4.7666666666666655E-005     9.2644818673896205E-024
   4.7866666666666660E-005     1.1370107817883735E-023
   4.8066666666666665E-005     1.1369142252135744E-023
   4.8266666666666656E-005     8.6701974487458974E-024
   4.8466666666666661E-005     3.1597056391397300E-024
   4.8666666666666666E-005    -4.6393718418475556E-024
   4.8866666666666657E-005    -1.3517199452999886E-023
   4.9066666666666662E-005    -2.1676375173926328E-023
   4.9266666666666667E-005    -2.6997552790838710E-023
   4.9466666666666658E-005    -2.7452936947873833E-023
   4.9666666666666663E-005    -2.1609176846575981E-023
   4.9866666666666655E-005    -9.1245560866042331E-024
   5.0066666666666659E-005     8.8783620644156179E-024
   5.0266666666666664E-005     2.9685287091904461E-023
   5.0466666666666656E-005     4.9202400084668887E-023
   5.0666666666666660E-005     6.2547443266878771E-023
   5.0866666666666665E-005     6.4980201946158987E-023
   5.1066666666666657E-005     5.3043158728354636E-023
   5.1266666666666661E-005     2.5700715949753300E-023
   5.1466666666666666E-005    -1.4788724903080374E-023
   5.1666666666666658E-005    -6.2539365331209308E-023
   5.1866666666666662E-005    -1.0845876929750715E-022
   5.2066666666666667E-005    -1.4151817540866655E-022
   5.2266666666666659E-005    -1.5079493984035046E-022
   5.2466666666666664E-005    -1.2801175337335379E-022
   5.2666666666666655E-005    -7.0113073731829682E-023
   5.2866666666666660E-005     1.8704554705950576E-023
   5.3066666666666665E-005     1.2611169668615122E-022
   5.3266666666666656E-005     2.3240498600084152E-022
   5.3466666666666661E-005     3.1314147914932704E-022
   5.3666666666666666E-005     3.4351307838421740E-022
   5.3866666666666657E-005     3.0389534776431467E-022
   5.4066666666666662E-005     1.8559661783589374E-022
   5.4266666666666667E-005    -4.4497884503698633E-024
   5.4466666666666658E-005    -2.4137550831823139E-022
   5.4666666666666663E-005    -4.8355623536141445E-022
   5.4866666666666668E-005    -6.7786486895150076E-022
   5.5066666666666659E-005    -7.6880384533761618E-022
   5.5266666666666664E-005    -7.1039734122152148E-022
   5.5466666666666655E-005    -4.7883306637547934E-022
   5.5666666666666660E-005    -8.3192475892815442E-023
   5.5866666666666665E-005     4.2859890880198465E-022
   5.6066666666666656E-005     9.7107803031716424E-022
   5.6266666666666661E-005     1.4312471273025448E-021
   5.6466666666666666E-005     1.6871047334454408E-021
   5.6666666666666657E-005     1.6325932079607695E-021
   5.6866666666666662E-005     1.2049215451994433E-021
   5.7066666666666667E-005     4.0874518570551880E-022
   5.7266666666666658E-005    -6.6889992545843261E-022
   5.7466666666666663E-005    -1.8583816073418517E-021
   5.7666666666666654E-005    -2.9254458092256078E-021
   5.7866666666666659E-005    -3.6076262648214213E-021
   5.8066666666666664E-005    -3.6653152463016759E-021
   5.8266666666666655E-005    -2.9396052187638263E-021
   5.8466666666666660E-005    -1.4057351889228545E-021
   5.8666666666666665E-005     7.9062038058401675E-022
   5.8866666666666656E-005     3.3260843573464879E-021
   5.9066666666666661E-005     5.7295044791461927E-021
   5.9266666666666666E-005     7.4509263027994303E-021
   5.9466666666666657E-005     7.9633097623134786E-021
   5.9666666666666662E-005     6.8821184626341819E-021
   5.9866666666666667E-005     4.0806839101158221E-021
   6.0066666666666659E-005    -2.2472779167123063E-022
   6.0266666666666663E-005    -5.4453812673280823E-021
   6.0466666666666655E-005    -1.0664737047863184E-020
   6.0666666666666660E-005    -1.4763949319024053E-020
   6.0866666666666664E-005    -1.6618677276062607E-020
   6.1066666666666656E-005    -1.5340133930042656E-020
   6.1266666666666661E-005    -1.0517808283764885E-020
   6.1466666666666665E-005    -2.4117230279775625E-021
   6.1666666666666657E-005     7.9582053147639449E-021
   6.1866666666666662E-005     1.8867175516419079E-020
   6.2066666666666666E-005     2.8103981530546229E-020
   6.2266666666666658E-005     3.3340871682142250E-020
   6.2466666666666663E-005     3.2607440359794744E-020
   6.2666666666666668E-005     2.4788759573294468E-020
   6.2866666666666659E-005     1.0045832274056625E-020
   6.3066666666666664E-005    -9.9482564657244791E-021
   6.3266666666666655E-005    -3.2046001212547180E-020
   6.3466666666666660E-005    -5.1986349869700047E-020
   6.3666666666666665E-005    -6.5069296931780156E-020
   6.3866666666666656E-005    -6.7065464695629607E-020
   6.4066666666666661E-005    -5.5215404487165644E-020
   6.4266666666666666E-005    -2.9124173106811141E-020
   6.4466666666666657E-005     8.6610664973639345E-021
   6.4666666666666662E-005     5.2578675811773371E-020
   6.4866666666666667E-005     9.4604653120038311E-020
   6.5066666666666658E-005     1.2544023383365326E-019
   6.5266666666666663E-005     1.3621321441169368E-019
   6.5466666666666654E-005     1.2043794955211832E-019
   6.5666666666666659E-005     7.5872753945514329E-020
   6.5866666666666664E-005     5.8623437078498135E-021
   6.6066666666666655E-005    -8.0220628502594717E-020
   6.6266666666666660E-005    -1.6770845227677406E-019
   6.6466666666666665E-005    -2.3862658822355182E-019
   6.6666666666666656E-005    -2.7477050358299779E-019
   6.6866666666666661E-005    -2.6144457221598022E-019
   6.7066666666666666E-005    -1.9121315127398633E-019
   6.7266666666666657E-005    -6.6887142650139074E-020
   6.7466666666666662E-005     9.7024085325922025E-020
   6.7666666666666667E-005     2.7499254987867999E-019
   6.7866666666666658E-005     4.3355374167381003E-019
   6.8066666666666663E-005     5.3661455233605284E-019
   6.8266666666666655E-005     5.5231656001262897E-019
   6.8466666666666659E-005     4.6033816010100677E-019
   6.8666666666666664E-005     2.5821838688126442E-019
   6.8866666666666656E-005    -3.4774976682110455E-020
   6.9066666666666660E-005    -3.7747981418369384E-019
   6.9266666666666665E-005    -7.1109067326730899E-019
   6.9466666666666657E-005    -9.6776647170373858E-019
   6.9666666666666661E-005    -1.0826321836828788E-018
   6.9866666666666666E-005    -1.0073431349064913E-018
   7.0066666666666658E-005    -7.2273737629205562E-019
   7.0266666666666662E-005    -2.4784264686770552E-019
   7.0466666666666654E-005     3.5723001919808945E-019
   7.0666666666666659E-005     9.9616678745755767E-019
   7.0866666666666664E-005     1.5494722418924938E-018
   7.1066666666666655E-005     1.8944063505319532E-018
   7.1266666666666660E-005     1.9289944942555518E-018
   7.1466666666666665E-005     1.5959510035239656E-018
   7.1666666666666656E-005     9.0165892093153660E-019
   7.1866666666666661E-005    -7.4474437431736114E-020
   7.2066666666666666E-005    -1.1838159147400856E-018
   7.2266666666666657E-005    -2.2269162063708661E-018
   7.2466666666666662E-005    -2.9852760123449413E-018
   7.2666666666666667E-005    -3.2622938364052749E-018
   7.2866666666666658E-005    -2.9266590990072898E-018
   7.3066666666666663E-005    -1.9498195933571868E-018
   7.3266666666666654E-005    -4.2895086930586457E-019
   7.3466666666666659E-005     1.4116704658884832E-018
   7.3666666666666664E-005     3.2448097197977416E-018
   7.3866666666666655E-005     4.6893820183335575E-018
   7.4066666666666660E-005     5.3788482258347755E-018
   7.4266666666666665E-005     5.0384034331747945E-018
   7.4466666666666656E-005     3.5569423948367170E-018
   7.4666666666666661E-005     1.0384711821277806E-018
   7.4866666666666666E-005    -2.1808120541593043E-018
   7.5066666666666657E-005    -5.5590288427641388E-018
   7.5266666666666662E-005    -8.4208855786082587E-018
   7.5466666666666653E-005    -1.0069171162115112E-017