  -3.3333333333333335E-005     0.0000000000000000     
  -3.3133333333333337E-005     0.0000000000000000     
  -3.2933333333333332E-005     0.0000000000000000     
  -3.2733333333333334E-005     0.0000000000000000     
  -3.2533333333333336E-005     0.0000000000000000     
  -3.2333333333333338E-005     0.0000000000000000     
  -3.2133333333333333E-005     0.0000000000000000     
  -3.1933333333333335E-005     0.0000000000000000     
  -3.1733333333333337E-005     0.0000000000000000     
  -3.1533333333333332E-005     0.0000000000000000     
  -3.1333333333333334E-005     0.0000000000000000     
  -3.1133333333333336E-005     0.0000000000000000     
  -3.0933333333333338E-005     0.0000000000000000     
  -3.0733333333333333E-005     0.0000000000000000     
  -3.0533333333333335E-005     0.0000000000000000     
  -3.0333333333333337E-005     0.0000000000000000     
  -3.0133333333333335E-005     0.0000000000000000     
  -2.9933333333333334E-005     0.0000000000000000     
  -2.9733333333333336E-005     0.0000000000000000     
  -2.9533333333333334E-005     0.0000000000000000     
  -2.9333333333333336E-005     0.0000000000000000     
  -2.9133333333333334E-005     0.0000000000000000     
  -2.8933333333333336E-005     0.0000000000000000     
  -2.8733333333333335E-005     0.0000000000000000     
  -2.8533333333333333E-005     0.0000000000000000     
  -2.8333333333333335E-005     0.0000000000000000     
  -2.8133333333333337E-005     0.0000000000000000     
  -2.7933333333333336E-005     0.0000000000000000     
  -2.7733333333333334E-005     0.0000000000000000     
  -2.7533333333333336E-005     0.0000000000000000     
  -2.7333333333333335E-005     0.0000000000000000     
  -2.7133333333333333E-005     0.0000000000000000     
  -2.6933333333333335E-005     0.0000000000000000     
  -2.6733333333333337E-005     0.0000000000000000     
  -2.6533333333333336E-005     0.0000000000000000     
  -2.6333333333333334E-005     0.0000000000000000     
  -2.6133333333333336E-005     0.0000000000000000     
  -2.5933333333333335E-005     0.0000000000000000     
  -2.5733333333333333E-005     0.0000000000000000     
  -2.5533333333333335E-005     0.0000000000000000     
  -2.5333333333333337E-005     0.0000000000000000     
  -2.5133333333333336E-005     0.0000000000000000     
  -2.4933333333333334E-005     0.0000000000000000     
  -2.4733333333333336E-005     0.0000000000000000     
  -2.4533333333333334E-005     0.0000000000000000     
  -2.4333333333333333E-005     0.0000000000000000     
  -2.4133333333333335E-005     0.0000000000000000     
  -2.3933333333333337E-005     0.0000000000000000     
  -2.3733333333333335E-005     0.0000000000000000     
  -2.3533333333333334E-005     0.0000000000000000     
  -2.3333333333333336E-005     0.0000000000000000     
  -2.3133333333333338E-005     0.0000000000000000     
  -2.2933333333333336E-005     0.0000000000000000     
  -2.2733333333333335E-005     0.0000000000000000     
  -2.2533333333333337E-005     0.0000000000000000     
  -2.2333333333333335E-005     0.0000000000000000     
  -2.2133333333333334E-005     0.0000000000000000     
  -2.1933333333333336E-005     0.0000000000000000     
  -2.1733333333333338E-005     0.0000000000000000     
  -2.1533333333333336E-005     0.0000000000000000     
  -2.1333333333333335E-005     0.0000000000000000     
  -2.1133333333333337E-005     0.0000000000000000     
  -2.0933333333333335E-005     0.0000000000000000     
  -2.0733333333333334E-005     0.0000000000000000     
  -2.0533333333333336E-005     0.0000000000000000     
  -2.0333333333333337E-005     0.0000000000000000     
  -2.0133333333333336E-005     0.0000000000000000     
  -1.9933333333333334E-005     0.0000000000000000     
  -1.9733333333333336E-005     0.0000000000000000     
  -1.9533333333333335E-005     0.0000000000000000     
  -1.9333333333333333E-005     0.0000000000000000     
  -1.9133333333333335E-005     0.0000000000000000     
  -1.8933333333333337E-005     0.0000000000000000     
  -1.8733333333333336E-005     0.0000000000000000     
  -1.8533333333333334E-005     0.0000000000000000     
  -1.8333333333333336E-005     0.0000000000000000     
  -1.8133333333333335E-005     0.0000000000000000     
  -1.7933333333333337E-005     0.0000000000000000     
  -1.7733333333333335E-005     0.0000000000000000     
  -1.7533333333333337E-005     0.0000000000000000     
  -1.7333333333333336E-005     0.0000000000000000     
  -1.7133333333333334E-005     0.0000000000000000     
  -1.6933333333333336E-005     0.0000000000000000     
  -1.6733333333333335E-005     0.0000000000000000     
  -1.6533333333333337E-005     0.0000000000000000     
  -1.6333333333333335E-005     0.0000000000000000     
  -1.6133333333333337E-005     0.0000000000000000     
  -1.5933333333333336E-005     0.0000000000000000     
  -1.5733333333333334E-005     0.0000000000000000     
  -1.5533333333333336E-005     0.0000000000000000     
  -1.5333333333333334E-005     0.0000000000000000     
  -1.5133333333333336E-005     0.0000000000000000     
  -1.4933333333333335E-005     0.0000000000000000     
  -1.4733333333333337E-005     0.0000000000000000     
  -1.4533333333333335E-005     0.0000000000000000     
  -1.4333333333333337E-005     0.0000000000000000     
  -1.4133333333333336E-005     0.0000000000000000     
  -1.3933333333333334E-005     0.0000000000000000     
  -1.3733333333333336E-005     0.0000000000000000     
  -1.3533333333333335E-005     0.0000000000000000     
  -1.3333333333333337E-005     0.0000000000000000     
  -1.3133333333333335E-005     0.0000000000000000     
  -1.2933333333333337E-005     0.0000000000000000     
  -1.2733333333333336E-005     0.0000000000000000     
  -1.2533333333333338E-005     0.0000000000000000     
  -1.2333333333333336E-005     0.0000000000000000     
  -1.2133333333333335E-005     0.0000000000000000     
  -1.1933333333333337E-005     0.0000000000000000     
  -1.1733333333333335E-005     0.0000000000000000     
  -1.1533333333333337E-005     0.0000000000000000     
  -1.1333333333333336E-005     0.0000000000000000     
  -1.1133333333333337E-005     0.0000000000000000     
  -1.0933333333333336E-005     0.0000000000000000     
  -1.0733333333333334E-005     0.0000000000000000     
  -1.0533333333333336E-005     0.0000000000000000     
  -1.0333333333333335E-005     0.0000000000000000     
  -1.0133333333333337E-005     0.0000000000000000     
  -9.9333333333333354E-006     0.0000000000000000     
  -9.7333333333333373E-006     0.0000000000000000     
  -9.5333333333333358E-006     0.0000000000000000     
  -9.3333333333333343E-006     0.0000000000000000     
  -9.1333333333333362E-006     0.0000000000000000     
  -8.9333333333333348E-006     0.0000000000000000     
  -8.7333333333333367E-006     0.0000000000000000     
  -8.5333333333333352E-006     0.0000000000000000     
  -8.3333333333333371E-006     0.0000000000000000     
  -8.1333333333333356E-006     0.0000000000000000     
  -7.9333333333333376E-006     0.0000000000000000     
  -7.7333333333333361E-006     0.0000000000000000     
  -7.5333333333333346E-006     0.0000000000000000     
  -7.3333333333333365E-006     0.0000000000000000     
  -7.1333333333333351E-006     0.0000000000000000     
  -6.9333333333333370E-006     0.0000000000000000     
  -6.7333333333333355E-006     0.0000000000000000     
  -6.5333333333333374E-006     0.0000000000000000     
  -6.3333333333333359E-006     0.0000000000000000     
  -6.1333333333333379E-006     0.0000000000000000     
  -5.9333333333333364E-006     0.0000000000000000     
  -5.7333333333333349E-006     0.0000000000000000     
  -5.5333333333333368E-006     0.0000000000000000     
  -5.3333333333333354E-006     0.0000000000000000     
  -5.1333333333333373E-006     0.0000000000000000     
  -4.9333333333333358E-006     0.0000000000000000     
  -4.7333333333333377E-006     0.0000000000000000     
  -4.5333333333333362E-006     0.0000000000000000     
  -4.3333333333333348E-006     0.0000000000000000     
  -4.1333333333333367E-006     0.0000000000000000     
  -3.9333333333333352E-006     0.0000000000000000     
  -3.7333333333333371E-006     0.0000000000000000     
  -3.5333333333333356E-006     0.0000000000000000     
  -3.3333333333333376E-006     0.0000000000000000     
  -3.1333333333333361E-006     0.0000000000000000     
  -2.9333333333333346E-006     0.0000000000000000     
  -2.7333333333333365E-006     0.0000000000000000     
  -2.5333333333333384E-006     0.0000000000000000     
  -2.3333333333333336E-006     0.0000000000000000     
  -2.1333333333333355E-006     0.0000000000000000     
  -1.9333333333333374E-006     0.0000000000000000     
  -1.7333333333333393E-006     0.0000000000000000     
  -1.5333333333333345E-006     0.0000000000000000     
  -1.3333333333333364E-006     0.0000000000000000     
  -1.1333333333333383E-006     0.0000000000000000     
  -9.3333333333333343E-007     0.0000000000000000     
  -7.3333333333333535E-007     0.0000000000000000     
  -5.3333333333333726E-007     0.0000000000000000     
  -3.3333333333333918E-007     0.0000000000000000     
  -1.3333333333333432E-007     0.0000000000000000     
   6.6666666666663770E-008     0.0000000000000000     
   2.6666666666666185E-007     0.0000000000000000     
   4.6666666666666672E-007     0.0000000000000000     
   6.6666666666666480E-007     0.0000000000000000     
   8.6666666666666289E-007     0.0000000000000000     
   1.0666666666666610E-006     0.0000000000000000     
   1.2666666666666658E-006     0.0000000000000000     
   1.4666666666666639E-006     0.0000000000000000     
   1.6666666666666620E-006     0.0000000000000000     
   1.8666666666666669E-006     0.0000000000000000     
   2.0666666666666649E-006     0.0000000000000000     
   2.2666666666666630E-006     0.0000000000000000     
   2.4666666666666611E-006     0.0000000000000000     
   2.6666666666666660E-006     0.0000000000000000     
   2.8666666666666641E-006     0.0000000000000000     
   3.0666666666666622E-006     0.0000000000000000     
   3.2666666666666602E-006     0.0000000000000000     
   3.4666666666666651E-006     0.0000000000000000     
   3.6666666666666632E-006     0.0000000000000000     
   3.8666666666666613E-006     0.0000000000000000     
   4.0666666666666661E-006     0.0000000000000000     
   4.2666666666666642E-006     0.0000000000000000     
   4.4666666666666623E-006     0.0000000000000000     
   4.6666666666666604E-006     0.0000000000000000     
   4.8666666666666652E-006     0.0000000000000000     
   5.0666666666666633E-006     0.0000000000000000     
   5.2666666666666614E-006     0.0000000000000000     
   5.4666666666666663E-006     0.0000000000000000     
   5.6666666666666644E-006     0.0000000000000000     
   5.8666666666666624E-006     0.0000000000000000     
   6.0666666666666605E-006     0.0000000000000000     
   6.2666666666666654E-006     0.0000000000000000     
   6.4666666666666635E-006     0.0000000000000000     
   6.6666666666666616E-006     0.0000000000000000     
   6.8666666666666664E-006     0.0000000000000000     
   7.0666666666666645E-006     0.0000000000000000     
   7.2666666666666626E-006     0.0000000000000000     
   7.4666666666666607E-006     0.0000000000000000     
   7.6666666666666655E-006     0.0000000000000000     
   7.8666666666666636E-006     0.0000000000000000     
   8.0666666666666617E-006     0.0000000000000000     
   8.2666666666666598E-006     0.0000000000000000     
   8.4666666666666647E-006     0.0000000000000000     
   8.6666666666666627E-006     0.0000000000000000     
   8.8666666666666608E-006     0.0000000000000000     
   9.0666666666666657E-006     0.0000000000000000     
   9.2666666666666638E-006     0.0000000000000000     
   9.4666666666666619E-006     0.0000000000000000     
   9.6666666666666599E-006     0.0000000000000000     
   9.8666666666666648E-006     0.0000000000000000     
   1.0066666666666663E-005     0.0000000000000000     
   1.0266666666666661E-005     0.0000000000000000     
   1.0466666666666666E-005     0.0000000000000000     
   1.0666666666666664E-005     0.0000000000000000     
   1.0866666666666662E-005     0.0000000000000000     
   1.1066666666666660E-005     0.0000000000000000     
   1.1266666666666665E-005     0.0000000000000000     
   1.1466666666666663E-005     0.0000000000000000     
   1.1666666666666661E-005     0.0000000000000000     
   1.1866666666666666E-005     0.0000000000000000     
   1.2066666666666664E-005     0.0000000000000000     
   1.2266666666666662E-005     0.0000000000000000     
   1.2466666666666660E-005     0.0000000000000000     
   1.2666666666666665E-005     0.0000000000000000     
   1.2866666666666663E-005     0.0000000000000000     
   1.3066666666666661E-005     0.0000000000000000     
   1.3266666666666666E-005     1.2875887215594909E-036
   1.3466666666666664E-005     3.0528687446949448E-036
   1.3666666666666662E-005     4.9765619494774751E-036
   1.3866666666666660E-005     6.4931548569749540E-036
   1.4066666666666665E-005     3.4331265309037546E-036
   1.4266666666666663E-005    -3.0032605369803033E-036
   1.4466666666666661E-005    -1.1859677586802182E-035
   1.4666666666666666E-005    -1.9458909921476188E-035
   1.4866666666666664E-005    -1.7355304522536829E-035
   1.5066666666666662E-005     2.2352821466829042E-035
   1.5266666666666661E-005     9.2236754139298025E-035
   1.5466666666666665E-005     1.8515441108542246E-034
   1.5666666666666663E-005     2.8181806661842390E-034
   1.5866666666666662E-005     3.4208602932706721E-034
   1.6066666666666660E-005     3.1617087883074751E-034
   1.6266666666666665E-005     1.8652461964697372E-034
   1.6466666666666663E-005    -7.1195238807742292E-035
   1.6666666666666661E-005    -4.2007681934401238E-034
   1.6866666666666666E-005    -8.1606353500685281E-034
   1.7066666666666664E-005    -1.1575974493310182E-033
   1.7266666666666662E-005    -1.3110734815232300E-033
   1.7466666666666660E-005    -1.1398423418458168E-033
   1.7666666666666665E-005    -5.5572579093978306E-034
   1.7866666666666663E-005     4.6390783536155803E-034
   1.8066666666666661E-005     1.8155502901610538E-033
   1.8266666666666666E-005     3.2527875599771245E-033
   1.8466666666666664E-005     4.3776427161919417E-033
   1.8666666666666662E-005     4.7204330319390446E-033
   1.8866666666666660E-005     3.8265401077997443E-033
   1.9066666666666665E-005     1.4047347591803383E-033
   1.9266666666666663E-005    -2.5116778610470201E-033
   1.9466666666666661E-005    -7.4422582425153883E-033
   1.9666666666666666E-005    -1.2366823582656400E-032
   1.9866666666666664E-005    -1.5866662586293937E-032
   2.0066666666666662E-005    -1.6297835383543491E-032
   2.0266666666666660E-005    -1.2215915087265774E-032
   2.0466666666666665E-005    -2.8784552410486057E-033
   2.0666666666666663E-005     1.1240199674785580E-032
   2.0866666666666661E-005     2.8075886171967655E-032
   2.1066666666666659E-005     4.3913060013103277E-032
   2.1266666666666664E-005     5.3782005120036349E-032
   2.1466666666666662E-005     5.2386564021231703E-032
   2.1666666666666660E-005     3.5506500408254179E-032
   2.1866666666666665E-005     1.6567404523519858E-033
   2.2066666666666663E-005    -4.6378530109574434E-032
   2.2266666666666661E-005    -1.0063445928703180E-031
   2.2466666666666659E-005    -1.4819110509983086E-031
   2.2666666666666664E-005    -1.7291995624819231E-031
   2.2866666666666662E-005    -1.5884228292251862E-031
   2.3066666666666660E-005    -9.4756299868725136E-032
   2.3266666666666665E-005     2.0712479355821456E-032
   2.3466666666666663E-005     1.7493230853725200E-031
   2.3666666666666661E-005     3.3949511120816027E-031
   2.3866666666666660E-005     4.7228081035812016E-031
   2.4066666666666664E-005     5.2421255210513171E-031
   2.4266666666666662E-005     4.5052692382270678E-031
   2.4466666666666661E-005     2.2501736041406524E-031
   2.4666666666666665E-005    -1.4571851150759372E-031
   2.4866666666666663E-005    -6.1209345016808658E-031
   2.5066666666666662E-005    -1.0797947226144992E-030
   2.5266666666666660E-005    -1.4200617809628445E-030
   2.5466666666666665E-005    -1.4933910933976482E-030
   2.5666666666666663E-005    -1.1847469019564799E-030
   2.5866666666666661E-005    -4.4438726980858794E-031
   2.6066666666666666E-005     6.7528412382704802E-031
   2.6266666666666664E-005     1.9986749891099068E-030
   2.6466666666666662E-005     3.2332489336881380E-030
   2.6666666666666660E-005     4.0107626508813401E-030
   2.6866666666666665E-005     3.9639008632891992E-030
   2.7066666666666663E-005     2.8287763738978794E-030
   2.7266666666666661E-005     5.5313643696304668E-031
   2.7466666666666666E-005    -2.6183698440272468E-030
   2.7666666666666664E-005    -6.1136825478922249E-030
   2.7866666666666662E-005    -9.0845084803299114E-030
   2.8066666666666667E-005    -1.0551885037387930E-029
   2.8266666666666658E-005    -9.6361437169674100E-030
   2.8466666666666663E-005    -5.8339145162383282E-030
   2.8666666666666668E-005     7.2093623369264481E-031
   2.8866666666666659E-005     9.0917066434970587E-030
   2.9066666666666664E-005     1.7546524805345718E-029
   2.9266666666666669E-005     2.3792982167310214E-029
   2.9466666666666660E-005     2.5445780639029652E-029
   2.9666666666666665E-005     2.0668425647909277E-029
   2.9866666666666656E-005     8.8608673887017889E-030
   3.0066666666666661E-005    -8.7895628417763896E-030
   3.0266666666666666E-005    -2.9095718810197274E-029
   3.0466666666666657E-005    -4.7165275030924418E-029
   3.0666666666666662E-005    -5.7277680158280025E-029
   3.0866666666666667E-005    -5.4273175278256251E-029
   3.1066666666666658E-005    -3.5211566524644166E-029
   3.1266666666666663E-005    -9.0139605756082494E-031
   3.1466666666666668E-005     4.3189866736217505E-029
   3.1666666666666659E-005     8.7109522495143020E-029
   3.1866666666666664E-005     1.1797157485191413E-028
   3.2066666666666656E-005     1.2286808321664854E-028
   3.2266666666666660E-005     9.2710499922347826E-029
   3.2466666666666665E-005     2.6153544847264271E-029
   3.2666666666666657E-005    -6.7548393717798724E-029
   3.2866666666666661E-005    -1.6796218008345801E-028
   3.3066666666666666E-005    -2.4610043200815362E-028
   3.3266666666666658E-005    -2.7051965888490396E-028
   3.3466666666666662E-005    -2.1620308999758823E-028
   3.3666666666666667E-005    -7.4464414166624364E-029
   3.3866666666666659E-005     1.3880196368498253E-028
   3.4066666666666664E-005     3.7961270873025508E-028
   3.4266666666666668E-005     5.7984382095779692E-028
   3.4466666666666660E-005     6.6002741048343178E-028
   3.4666666666666665E-005     5.5018854426711670E-028
   3.4866666666666656E-005     2.1519115825655857E-028
   3.5066666666666661E-005    -3.2155083202833811E-028
   3.5266666666666666E-005    -9.6382143323988693E-028
   3.5466666666666657E-005    -1.5455600322252206E-027
   3.5666666666666662E-005    -1.8563539918092970E-027
   3.5866666666666667E-005    -1.6899193630612297E-027
   3.6066666666666658E-005    -9.0928343055721528E-028
   3.6266666666666663E-005     4.8487505984209569E-028
   3.6466666666666668E-005     2.3021039292759118E-027
   3.6666666666666659E-005     4.1478106099806584E-027
   3.6866666666666664E-005     5.4647850022979718E-027
   3.7066666666666669E-005     5.6387893060994587E-027
   3.7266666666666660E-005     4.1605128883358700E-027
   3.7466666666666665E-005     8.1688655628924876E-028
   3.7666666666666656E-005    -4.1335279135130827E-027
   3.7866666666666661E-005    -9.8580303466015065E-027
   3.8066666666666666E-005    -1.4976458033630822E-026
   3.8266666666666657E-005    -1.7756308337504426E-026
   3.8466666666666662E-005    -1.6481251810426701E-026
   3.8666666666666667E-005    -9.9501976500201020E-027
   3.8866666666666658E-005     1.9882285780773131E-027
   3.9066666666666663E-005     1.8004714781731492E-026
   3.9266666666666668E-005     3.5120407975182192E-026
   3.9466666666666659E-005     4.8940912070984106E-026
   3.9666666666666664E-005     5.4370425977466559E-026
   3.9866666666666655E-005     4.6776373273182892E-026
   4.0066666666666660E-005     2.3439664432888983E-026
   4.0266666666666665E-005    -1.5010238844855374E-026
   4.0466666666666656E-005    -6.3575502132046639E-026
   4.0666666666666661E-005    -1.1270855113725864E-025
   4.0866666666666666E-005    -1.4930729677477665E-025
   4.1066666666666657E-005    -1.5901986317342254E-025
   4.1266666666666662E-005    -1.2968102909855679E-025
   4.1466666666666667E-005    -5.5337600262146630E-026
   4.1666666666666658E-005     6.0020599070281302E-026
   4.1866666666666663E-005     2.0012171035482990E-025
   4.2066666666666668E-005     3.3655397131763949E-025
   4.2266666666666660E-005     4.3217562268448799E-025
   4.2466666666666664E-005     4.4796925895649814E-025
   4.2666666666666656E-005     3.5266364498980381E-025
   4.2866666666666661E-005     1.3349582485073752E-025
   4.3066666666666665E-005    -1.9433789313131424E-025
   4.3266666666666657E-005    -5.8243769999956659E-025
   4.3466666666666662E-005    -9.5088386325299759E-025
   4.3666666666666666E-005    -1.1986302650954745E-024
   4.3866666666666658E-005    -1.2226915087808469E-024
   4.4066666666666663E-005    -9.4395648121379927E-025
   4.4266666666666667E-005    -3.3507352591757253E-025
   4.4466666666666659E-005     5.5610074051405132E-025
   4.4666666666666664E-005     1.5948749005727624E-024
   4.4866666666666655E-005     2.5665552080472621E-024
   4.5066666666666660E-005     3.2057027380165831E-024
   4.5266666666666665E-005     3.2472786659501250E-024
   4.5466666666666656E-005     2.4934317464378004E-024
   4.5666666666666661E-005     8.8382624896661972E-025
   4.5866666666666666E-005    -1.4471125755549095E-024
   4.6066666666666657E-005    -4.1443490020468871E-024
   4.6266666666666662E-005    -6.6536575602783919E-024
   4.6466666666666667E-005    -8.2990494368920844E-024
   4.6666666666666658E-005    -8.4135383977886203E-024
   4.6866666666666663E-005    -6.5064927973962439E-024
   4.7066666666666668E-005    -2.4368510924412760E-024
   4.7266666666666659E-005     3.4489034275003371E-024
   4.7466666666666664E-005     1.0258263592238084E-023
   4.7666666666666655E-005     1.6611094568336780E-023
   4.7866666666666660E-005     2.0834214092783153E-023
   4.8066666666666665E-005     2.1283506665908160E-023
   4.8266666666666656E-005     1.6751292506134468E-023
   4.8466666666666661E-005     6.8838519055873145E-024
   4.8666666666666666E-005    -7.4894825106308315E-024
   4.8866666666666657E-005    -2.4220311176022962E-023
   4.9066666666666662E-005    -3.9985084210802431E-023
   4.9266666666666667E-005    -5.0752066845877631E-023
   4.9466666666666658E-005    -5.2548315748840358E-023
   4.9666666666666663E-005    -4.2424945793673257E-023
   4.9866666666666655E-005    -1.9443693708315507E-023
   5.0066666666666659E-005     1.4545519086000736E-023
   5.0266666666666664E-005     5.4578376713223352E-023
   5.0466666666666656E-005     9.2901062784017336E-023
   5.0666666666666660E-005     1.2004411939110225E-022
   5.0866666666666665E-005     1.2659136198184904E-022
   5.1066666666666657E-005     1.0541011219964106E-022
   5.1266666666666661E-005     5.3938743047721188E-023
   5.1466666666666666E-005    -2.3992794224626359E-023
   5.1666666666666658E-005    -1.1736035148266795E-022
   5.1866666666666662E-005    -2.0861586935105598E-022
   5.2066666666666667E-005    -2.7605729207795556E-022
   5.2266666666666659E-005    -2.9778527295457963E-022
   5.2466666666666664E-005    -2.5673325436946578E-022
   5.2666666666666655E-005    -1.4587605761927363E-022
   5.2866666666666660E-005     2.7547840070215541E-023
   5.3066666666666665E-005     2.4003035532442300E-022
   5.3266666666666656E-005     4.5303143302784293E-022
   5.3466666666666661E-005     6.1799338071465098E-022
   5.3666666666666666E-005     6.8492730713311653E-022
   5.3866666666666657E-005     6.1348988109182733E-022
   5.4066666666666662E-005     3.8463032629986216E-022
   5.4266666666666667E-005     1.0279506038693875E-023
   5.4466666666666658E-005    -4.6161716792832772E-022
   5.4666666666666663E-005    -9.4901839969421077E-022
   5.4866666666666668E-005    -1.3459228210776856E-021
   5.5066666666666659E-005    -1.5404241639205866E-021
   5.5266666666666664E-005    -1.4385125236178559E-021
   5.5466666666666655E-005    -9.8962456671746819E-022
   5.5666666666666660E-005    -2.0858942673351297E-022
   5.5866666666666665E-005     8.1184041076832540E-022
   5.6066666666666656E-005     1.9029431355656617E-021
   5.6266666666666661E-005     2.8394650697534089E-021
   5.6466666666666666E-005     3.3763216451200545E-021
   5.6666666666666657E-005     3.2984123789687831E-021
   5.6866666666666662E-005     2.4754983300879742E-021
   5.7066666666666667E-005     9.1108905860342171E-022
   5.7266666666666658E-005    -1.2269287702147412E-021
   5.7466666666666663E-005    -3.6049488330437777E-021
   5.7666666666666654E-005    -5.7586230138539065E-021
   5.7866666666666659E-005    -7.1647460446630912E-021
   5.8066666666666664E-005    -7.3425882607748582E-021
   5.8266666666666655E-005    -5.9690035587390547E-021
   5.8466666666666660E-005    -2.9851112596157883E-021
   5.8666666666666665E-005     1.3308189998855110E-021
   5.8866666666666656E-005     6.3478272376877660E-021
   5.9066666666666661E-005     1.1140268157059574E-020
   5.9266666666666666E-005     1.4623018422160331E-020
   5.9466666666666657E-005     1.5751434949350444E-020
   5.9666666666666662E-005     1.3756716367160094E-020
   5.9866666666666667E-005     8.3732262234475206E-021
   6.0066666666666659E-005     6.5822573653163856E-024
   6.0266666666666663E-005    -1.0206841687820365E-020
   6.0466666666666655E-005    -2.0485392826165689E-020
   6.0666666666666660E-005    -2.8645400322030595E-020
   6.0866666666666664E-005    -3.2483524826625179E-020
   6.1066666666666656E-005    -3.0245458432392252E-020
   6.1266666666666661E-005    -2.1098404745901374E-020
   6.1466666666666665E-005    -5.5064415752599874E-021
   6.1666666666666657E-005     1.4592406277147334E-020
   6.1866666666666662E-005     3.5887172714476286E-020
   6.2066666666666666E-005     5.4109780663260489E-020
   6.2266666666666658E-005     6.4742528278079032E-020
   6.2466666666666663E-005     6.3926947581147353E-020
   6.2666666666666668E-005     4.9421795933927293E-020
   6.2866666666666659E-005     2.1416334522392971E-020
   6.3066666666666664E-005    -1.7003959264579054E-020
   6.3266666666666655E-005    -5.9909615689312863E-020
   6.3466666666666660E-005    -9.9192170947863260E-020
   6.3666666666666665E-005    -1.2582610066471217E-019
   6.3866666666666656E-005    -1.3158193355958585E-019
   6.4066666666666661E-005    -1.1092046112287147E-019
   6.4266666666666666E-005    -6.2704885161328288E-020
   6.4466666666666657E-005     8.6656773830440641E-021
   6.4666666666666662E-005     9.3055221048104314E-020
   6.4866666666666667E-005     1.7555034420362697E-019
   6.5066666666666658E-005     2.3860932082826477E-019
   6.5266666666666663E-005     2.6518642711444041E-019
   6.5466666666666654E-005     2.4237105391082038E-019
   6.5666666666666659E-005     1.6488453521370045E-019
   6.5866666666666664E-005     3.7679217506306939E-020
   6.6066666666666655E-005    -1.2307334698371227E-019
   6.6266666666666660E-005    -2.9112094331163306E-019
   6.6466666666666665E-005    -4.3356852752725942E-019
   6.6666666666666656E-005    -5.1634376764240491E-019
   6.6866666666666661E-005    -5.1094884398854578E-019
   6.7066666666666666E-005    -4.0135030795741355E-019
   6.7266666666666657E-005    -1.8961718383024769E-019
   6.7466666666666662E-005     1.0108519316673647E-019
   6.7666666666666667E-005     4.2725018596645554E-019
   6.7866666666666658E-005     7.3007255547023445E-019
   6.8066666666666663E-005     9.4453634497110563E-019
   6.8266666666666655E-005     1.0114314750840347E-018
   6.8466666666666659E-005     8.9038093366483548E-019
   6.8666666666666664E-005     5.7140592399639804E-019
   6.8866666666666656E-005     8.2413497231169864E-020
   6.9066666666666660E-005    -5.0964918814986012E-019
   6.9266666666666665E-005    -1.1053343623895498E-018
   6.9466666666666657E-005    -1.5869662711079911E-018
   6.9666666666666661E-005    -1.8391138760761523E-018
   6.9866666666666666E-005    -1.7722059246637287E-018
   7.0066666666666658E-005    -1.3450472714019310E-018
   7.0266666666666662E-005    -5.8149111681979769E-019
   7.0466666666666654E-005     4.2313134350382431E-019
   7.0666666666666659E-005     1.5088965513049301E-018
   7.0866666666666664E-005     2.4724002511194532E-018
   7.1066666666666655E-005     3.1002805872694138E-018
   7.1266666666666660E-005     3.2105170863479776E-018
   7.1466666666666665E-005     2.6944959708432566E-018
   7.1666666666666656E-005     1.5514893218162043E-018
   7.1866666666666661E-005    -9.2710151023350455E-020
   7.2066666666666666E-005    -1.9894667737071597E-018
   7.2266666666666657E-005    -3.7963656872371281E-018
   7.2466666666666662E-005    -5.1301588562125454E-018
   7.2666666666666667E-005    -5.6370356968406458E-018
   7.2866666666666658E-005    -5.0690769446494859E-018
   7.3066666666666663E-005    -3.3526387097034698E-018
   7.3266666666666654E-005    -6.3360592525368781E-019
   7.3466666666666659E-005     2.7134423359786306E-018
   7.3666666666666664E-005     6.1201381258930533E-018
   7.3866666666666655E-005     8.9038506956789824E-018
   7.4066666666666660E-005     1.0383651168937360E-017
   7.4266666666666665E-005     1.0015981794366727E-017
   7.4466666666666656E-005     7.5266379891700441E-018
   7.4666666666666661E-005     3.0125276844206539E-018
   7.4866666666666666E-005    -3.0117594404267453E-018
   7.5066666666666657E-005    -9.6408785476310807E-018
   7.5266666666666662E-005    -1.5686138630114609E-017
   7.5466666666666653E-005    -1.9855941208743395E-017