  -3.3333333333333335E-005     0.0000000000000000     
  -3.3133333333333337E-005     0.0000000000000000     
  -3.2933333333333332E-005     0.0000000000000000     
  -3.2733333333333334E-005     0.0000000000000000     
  -3.2533333333333336E-005     0.0000000000000000     
  -3.2333333333333338E-005     0.0000000000000000     
  -3.2133333333333333E-005     0.0000000000000000     
  -3.1933333333333335E-005     0.0000000000000000     
  -3.1733333333333337E-005     0.0000000000000000     
  -3.1533333333333332E-005     0.0000000000000000     
  -3.1333333333333334E-005     0.0000000000000000     
  -3.1133333333333336E-005     0.0000000000000000     
  -3.0933333333333338E-005     0.0000000000000000     
  -3.0733333333333333E-005     0.0000000000000000     
  -3.0533333333333335E-005     0.0000000000000000     
  -3.0333333333333337E-005     0.0000000000000000     
  -3.0133333333333335E-005     0.0000000000000000     
  -2.9933333333333334E-005     0.0000000000000000     
  -2.9733333333333336E-005     0.0000000000000000     
  -2.9533333333333334E-005     0.0000000000000000     
  -2.9333333333333336E-005     0.0000000000000000     
  -2.9133333333333334E-005     0.0000000000000000     
  -2.8933333333333336E-005     0.0000000000000000     
  -2.8733333333333335E-005     0.0000000000000000     
  -2.8533333333333333E-005     0.0000000000000000     
  -2.8333333333333335E-005     0.0000000000000000     
  -2.8133333333333337E-005     0.0000000000000000     
  -2.7933333333333336E-005     0.0000000000000000     
  -2.7733333333333334E-005     0.0000000000000000     
  -2.7533333333333336E-005     0.0000000000000000     
  -2.7333333333333335E-005     0.0000000000000000     
  -2.7133333333333333E-005     0.0000000000000000     
  -2.6933333333333335E-005     0.0000000000000000     
  -2.6733333333333337E-005     0.0000000000000000     
  -2.6533333333333336E-005     0.0000000000000000     
  -2.6333333333333334E-005     0.0000000000000000     
  -2.6133333333333336E-005     0.0000000000000000     
  -2.5933333333333335E-005     0.0000000000000000     
  -2.5733333333333333E-005     0.0000000000000000     
  -2.5533333333333335E-005     0.0000000000000000     
  -2.5333333333333337E-005     0.0000000000000000     
  -2.5133333333333336E-005     0.0000000000000000     
  -2.4933333333333334E-005     0.0000000000000000     
  -2.4733333333333336E-005     0.0000000000000000     
  -2.4533333333333334E-005     0.0000000000000000     
  -2.4333333333333333E-005     0.0000000000000000     
  -2.4133333333333335E-005     0.0000000000000000     
  -2.3933333333333337E-005     0.0000000000000000     
  -2.3733333333333335E-005     0.0000000000000000     
  -2.3533333333333334E-005     0.0000000000000000     
  -2.3333333333333336E-005     0.0000000000000000     
  -2.3133333333333338E-005     0.0000000000000000     
  -2.2933333333333336E-005     0.0000000000000000     
  -2.2733333333333335E-005     0.0000000000000000     
  -2.2533333333333337E-005     0.0000000000000000     
  -2.2333333333333335E-005     0.0000000000000000     
  -2.2133333333333334E-005     0.0000000000000000     
  -2.1933333333333336E-005     0.0000000000000000     
  -2.1733333333333338E-005     0.0000000000000000     
  -2.1533333333333336E-005     0.0000000000000000     
  -2.1333333333333335E-005     0.0000000000000000     
  -2.1133333333333337E-005     0.0000000000000000     
  -2.0933333333333335E-005     0.0000000000000000     
  -2.0733333333333334E-005     0.0000000000000000     
  -2.0533333333333336E-005     0.0000000000000000     
  -2.0333333333333337E-005     0.0000000000000000     
  -2.0133333333333336E-005     0.0000000000000000     
  -1.9933333333333334E-005     0.0000000000000000     
  -1.9733333333333336E-005     0.0000000000000000     
  -1.9533333333333335E-005     0.0000000000000000     
  -1.9333333333333333E-005     0.0000000000000000     
  -1.9133333333333335E-005     0.0000000000000000     
  -1.8933333333333337E-005     0.0000000000000000     
  -1.8733333333333336E-005     0.0000000000000000     
  -1.8533333333333334E-005     0.0000000000000000     
  -1.8333333333333336E-005     0.0000000000000000     
  -1.8133333333333335E-005     0.0000000000000000     
  -1.7933333333333337E-005     0.0000000000000000     
  -1.7733333333333335E-005     0.0000000000000000     
  -1.7533333333333337E-005     0.0000000000000000     
  -1.7333333333333336E-005     0.0000000000000000     
  -1.7133333333333334E-005     0.0000000000000000     
  -1.6933333333333336E-005     0.0000000000000000     
  -1.6733333333333335E-005     0.0000000000000000     
  -1.6533333333333337E-005     0.0000000000000000     
  -1.6333333333333335E-005     0.0000000000000000     
  -1.6133333333333337E-005     0.0000000000000000     
  -1.5933333333333336E-005     0.0000000000000000     
  -1.5733333333333334E-005     0.0000000000000000     
  -1.5533333333333336E-005     0.0000000000000000     
  -1.5333333333333334E-005     0.0000000000000000     
  -1.5133333333333336E-005     0.0000000000000000     
  -1.4933333333333335E-005     0.0000000000000000     
  -1.4733333333333337E-005     0.0000000000000000     
  -1.4533333333333335E-005     0.0000000000000000     
  -1.4333333333333337E-005     0.0000000000000000     
  -1.4133333333333336E-005     0.0000000000000000     
  -1.3933333333333334E-005     0.0000000000000000     
  -1.3733333333333336E-005     0.0000000000000000     
  -1.3533333333333335E-005     0.0000000000000000     
  -1.3333333333333337E-005     0.0000000000000000     
  -1.3133333333333335E-005     0.0000000000000000     
  -1.2933333333333337E-005     0.0000000000000000     
  -1.2733333333333336E-005     0.0000000000000000     
  -1.2533333333333338E-005     0.0000000000000000     
  -1.2333333333333336E-005     0.0000000000000000     
  -1.2133333333333335E-005     0.0000000000000000     
  -1.1933333333333337E-005     0.0000000000000000     
  -1.1733333333333335E-005     0.0000000000000000     
  -1.1533333333333337E-005     0.0000000000000000     
  -1.1333333333333336E-005     0.0000000000000000     
  -1.1133333333333337E-005     0.0000000000000000     
  -1.0933333333333336E-005     0.0000000000000000     
  -1.0733333333333334E-005     0.0000000000000000     
  -1.0533333333333336E-005     0.0000000000000000     
  -1.0333333333333335E-005     0.0000000000000000     
  -1.0133333333333337E-005     0.0000000000000000     
  -9.9333333333333354E-006     0.0000000000000000     
  -9.7333333333333373E-006     0.0000000000000000     
  -9.5333333333333358E-006     0.0000000000000000     
  -9.3333333333333343E-006     0.0000000000000000     
  -9.1333333333333362E-006     0.0000000000000000     
  -8.9333333333333348E-006     0.0000000000000000     
  -8.7333333333333367E-006     0.0000000000000000     
  -8.5333333333333352E-006     0.0000000000000000     
  -8.3333333333333371E-006     0.0000000000000000     
  -8.1333333333333356E-006     0.0000000000000000     
  -7.9333333333333376E-006     0.0000000000000000     
  -7.7333333333333361E-006     0.0000000000000000     
  -7.5333333333333346E-006     0.0000000000000000     
  -7.3333333333333365E-006     0.0000000000000000     
  -7.1333333333333351E-006     0.0000000000000000     
  -6.9333333333333370E-006     0.0000000000000000     
  -6.7333333333333355E-006     0.0000000000000000     
  -6.5333333333333374E-006     0.0000000000000000     
  -6.3333333333333359E-006     0.0000000000000000     
  -6.1333333333333379E-006     0.0000000000000000     
  -5.9333333333333364E-006     0.0000000000000000     
  -5.7333333333333349E-006     0.0000000000000000     
  -5.5333333333333368E-006     0.0000000000000000     
  -5.3333333333333354E-006     0.0000000000000000     
  -5.1333333333333373E-006     0.0000000000000000     
  -4.9333333333333358E-006     0.0000000000000000     
  -4.7333333333333377E-006     0.0000000000000000     
  -4.5333333333333362E-006     0.0000000000000000     
  -4.3333333333333348E-006     0.0000000000000000     
  -4.1333333333333367E-006     0.0000000000000000     
  -3.9333333333333352E-006     0.0000000000000000     
  -3.7333333333333371E-006     0.0000000000000000     
  -3.5333333333333356E-006     0.0000000000000000     
  -3.3333333333333376E-006     0.0000000000000000     
  -3.1333333333333361E-006     0.0000000000000000     
  -2.9333333333333346E-006     0.0000000000000000     
  -2.7333333333333365E-006     0.0000000000000000     
  -2.5333333333333384E-006     0.0000000000000000     
  -2.3333333333333336E-006     0.0000000000000000     
  -2.1333333333333355E-006     0.0000000000000000     
  -1.9333333333333374E-006     0.0000000000000000     
  -1.7333333333333393E-006     0.0000000000000000     
  -1.5333333333333345E-006     0.0000000000000000     
  -1.3333333333333364E-006     0.0000000000000000     
  -1.1333333333333383E-006     0.0000000000000000     
  -9.3333333333333343E-007     0.0000000000000000     
  -7.3333333333333535E-007     0.0000000000000000     
  -5.3333333333333726E-007     0.0000000000000000     
  -3.3333333333333918E-007     0.0000000000000000     
  -1.3333333333333432E-007     0.0000000000000000     
   6.6666666666663770E-008     0.0000000000000000     
   2.6666666666666185E-007     0.0000000000000000     
   4.6666666666666672E-007     2.2870377837580298E-038
   6.6666666666666480E-007     6.0359014374492299E-038
   8.6666666666666289E-007     1.0332232082324403E-037
   1.0666666666666610E-006     1.3501681101662874E-037
   1.2666666666666658E-006     1.1233377977723635E-037
   1.4666666666666639E-006     2.8276196350673895E-038
   1.6666666666666620E-006    -1.2275257959453166E-037
   1.8666666666666669E-006    -3.2688683427853882E-037
   2.0666666666666649E-006    -5.4245631221314850E-037
   2.2666666666666630E-006    -7.5950313988233883E-037
   2.4666666666666611E-006    -8.8316815535373710E-037
   2.6666666666666660E-006    -8.5442642523243907E-037
   2.8666666666666641E-006    -6.1203385261310947E-037
   3.0666666666666622E-006    -1.1531138206849858E-037
   3.2666666666666602E-006     6.3945441612146663E-037
   3.4666666666666651E-006     1.6051144336808313E-036
   3.6666666666666632E-006     2.6731820604778674E-036
   3.8666666666666613E-006     3.6668830244017152E-036
   4.0666666666666661E-006     4.3460427504631538E-036
   4.2666666666666642E-006     4.4264328891800485E-036
   4.4666666666666623E-006     3.6179149746671282E-036
   4.6666666666666604E-006     1.6791329467531551E-036
   4.8666666666666652E-006    -1.5091029335744996E-036
   5.0666666666666633E-006    -5.8601923315374605E-036
   5.2666666666666614E-006    -1.1000900903354766E-035
   5.4666666666666663E-006    -1.6212375899609942E-035
   5.6666666666666644E-006    -2.0416636482174584E-035
   5.8666666666666624E-006    -2.2233842841837855E-035
   6.0666666666666605E-006    -2.0131523139844708E-035
   6.2666666666666654E-006    -1.2677842891932980E-035
   6.4666666666666635E-006     1.1060007089639826E-036
   6.6666666666666616E-006     2.1322013940203670E-035
   6.8666666666666664E-006     4.6755477214667311E-035
   7.0666666666666645E-006     7.4500903409697264E-035
   7.2666666666666626E-006     9.9766926180861221E-035
   7.4666666666666607E-006     1.1597449076143026E-034
   7.6666666666666655E-006     1.1526883828838928E-034
   7.8666666666666636E-006     8.9532330790970910E-035
   8.0666666666666617E-006     3.1926834088347530E-035
   8.2666666666666598E-006    -6.1097363512757190E-035
   8.4666666666666647E-006    -1.8751090991683651E-034
   8.6666666666666627E-006    -3.3745958661936801E-034
   8.8666666666666608E-006    -4.9153351380931647E-034
   9.0666666666666657E-006    -6.2013966712247889E-034
   9.2666666666666638E-006    -6.8462131790133931E-034
   9.4666666666666619E-006    -6.4072170076816364E-034
   9.6666666666666599E-006    -4.4479907266298785E-034
   9.8666666666666648E-006    -6.2831797391789562E-035
   1.0066666666666663E-005     5.1828776523403173E-034
   1.0266666666666661E-005     1.2783812387524352E-033
   1.0466666666666666E-005     2.1525149293738783E-033
   1.0666666666666664E-005     3.0231488610722365E-033
   1.0866666666666662E-005     3.7191311482032809E-033
   1.1066666666666660E-005     4.0248066991911085E-033
   1.1266666666666665E-005     3.7019399106644896E-033
   1.1466666666666663E-005     2.5257231818294233E-033
   1.1666666666666661E-005     3.3385568624363996E-034
   1.1866666666666666E-005    -2.9153683350583179E-033
   1.2066666666666664E-005    -7.0835370395787664E-033
   1.2266666666666662E-005    -1.1802107280313742E-032
   1.2466666666666660E-005    -1.6445367271411381E-032
   1.2666666666666665E-005    -2.0140635149609000E-032
   1.2866666666666663E-005    -2.1828243899942587E-032
   1.3066666666666661E-005    -2.0379040097635145E-032
   1.3266666666666666E-005    -1.4769087347883844E-032
   1.3466666666666664E-005    -4.3006111020146187E-033
   1.3666666666666662E-005     1.1153994796568028E-032
   1.3866666666666660E-005     3.0920047651027967E-032
   1.4066666666666665E-005     5.3344356818281703E-032
   1.4266666666666663E-005     7.5723024478628887E-032
   1.4466666666666661E-005     9.4378090438819819E-032
   1.4666666666666666E-005     1.0491691451145599E-031
   1.4866666666666664E-005     1.0268845934094113E-031
   1.5066666666666662E-005     8.3424704773479154E-032
   1.5266666666666661E-005     4.4025278581304526E-032
   1.5466666666666665E-005    -1.6587637352691402E-032
   1.5666666666666663E-005    -9.6644796195510436E-032
   1.5866666666666662E-005    -1.9085832918015864E-031
   1.6066666666666660E-005    -2.9003900758375449E-031
   1.6266666666666665E-005    -3.8114083069762348E-031
   1.6466666666666663E-005    -4.4786193707007055E-031
   1.6666666666666661E-005    -4.7190535746246752E-031
   1.6866666666666666E-005    -4.3495783028448381E-031
   1.7066666666666664E-005    -3.2137284393995129E-031
   1.7266666666666662E-005    -1.2143635996748825E-031
   1.7466666666666660E-005     1.6504874028059470E-031
   1.7666666666666665E-005     5.2530275258585833E-031
   1.7866666666666663E-005     9.3086532477774743E-031
   1.8066666666666661E-005     1.3364468929583458E-030
   1.8266666666666666E-005     1.6812117688511294E-030
   1.8466666666666664E-005     1.8932893814908910E-030
   1.8666666666666662E-005     1.8980000105326022E-030
   1.8866666666666660E-005     1.6296799773020416E-030
   1.9066666666666665E-005     1.0461357114126019E-030
   1.9266666666666663E-005     1.4370804000949534E-031
   1.9466666666666661E-005    -1.0300812797668115E-030
   1.9666666666666666E-005    -2.3700219300148972E-030
   1.9866666666666664E-005    -3.7165734664524595E-030
   2.0066666666666662E-005    -4.8718173409942613E-030
   2.0266666666666660E-005    -5.6285347763700039E-030
   2.0466666666666665E-005    -5.8096267340802823E-030
   2.0666666666666663E-005    -5.3111422738513720E-030
   2.0866666666666661E-005    -4.1384721187365961E-030
   2.1066666666666659E-005    -2.4230493265364232E-030
   2.1266666666666664E-005    -4.0754831128884617E-031
   2.1466666666666662E-005     1.6077582301733308E-030
   2.1666666666666660E-005     3.3557136278686691E-030
   2.1866666666666665E-005     4.7154675645382827E-030
   2.2066666666666663E-005     5.8193034035762513E-030
   2.2266666666666661E-005     7.1123712636050724E-030
   2.2466666666666659E-005     9.3200339138843953E-030
   2.2666666666666664E-005     1.3285263367908668E-029
   2.2866666666666662E-005     1.9662077599085568E-029
   2.3066666666666660E-005     2.8491052039298135E-029
   2.3266666666666665E-005     3.8734682208973889E-029
   2.3466666666666663E-005     4.7904049720529209E-029
   2.3666666666666661E-005     5.1947975982273236E-029
   2.3866666666666660E-005     4.5583084461158308E-029
   2.4066666666666664E-005     2.3199925142857084E-029
   2.4266666666666662E-005    -1.9624546039294322E-029
   2.4466666666666661E-005    -8.4142723712311702E-029
   2.4666666666666665E-005    -1.6631983128631964E-028
   2.4866666666666663E-005    -2.5512781936235561E-028
   2.5066666666666662E-005    -3.3193631295694906E-028
   2.5266666666666660E-005    -3.7170173481656577E-028
   2.5466666666666665E-005    -3.4647922663413582E-028
   2.5666666666666663E-005    -2.3137898462512217E-028
   2.5866666666666661E-005    -1.2470601019963943E-029
   2.6066666666666666E-005     3.0461598558259532E-028
   2.6266666666666664E-005     6.8738721942164546E-028
   2.6466666666666662E-005     1.0729961425148801E-027
   2.6666666666666660E-005     1.3711449275665960E-027
   2.6866666666666665E-005     1.4753540116659755E-027
   2.7066666666666663E-005     1.2831826032920783E-027
   2.7266666666666661E-005     7.2385802514777184E-028
   2.7466666666666666E-005    -2.1082011580302591E-028
   2.7666666666666664E-005    -1.4389976543267943E-027
   2.7866666666666662E-005    -2.7732364678515838E-027
   2.8066666666666667E-005    -3.9258051986172419E-027
   2.8266666666666658E-005    -4.5417950172160443E-027
   2.8466666666666663E-005    -4.2626522718205138E-027
   2.8666666666666668E-005    -2.8158794457152338E-027
   2.8866666666666659E-005    -1.1824564672006258E-028
   2.9066666666666664E-005     3.6285714228821044E-027
   2.9266666666666669E-005     7.8772375914464781E-027
   2.9466666666666660E-005     1.1737893587462955E-026
   2.9666666666666665E-005     1.4069038421777288E-026
   2.9866666666666656E-005     1.3666978205099097E-026
   3.0066666666666661E-005     9.5438934541164599E-027
   3.0266666666666666E-005     1.2587009522110055E-027
   3.0466666666666657E-005    -1.0761727521058529E-026
   3.0666666666666662E-005    -2.4994088653979743E-026
   3.0866666666666667E-005    -3.8773662886603541E-026
   3.1066666666666658E-005    -4.8511562197365927E-026
   3.1266666666666663E-005    -5.0217285934143792E-026
   3.1466666666666668E-005    -4.0310804582745347E-026
   3.1666666666666659E-005    -1.6632770111755489E-026
   3.1866666666666664E-005     2.0518549478710509E-026
   3.2066666666666656E-005     6.7561018477473674E-026
   3.2266666666666660E-005     1.1728235433977842E-025
   3.2466666666666665E-005     1.5922133085304500E-025
   3.2666666666666657E-005     1.8093628033916051E-025
   3.2866666666666661E-005     1.7016581448875830E-025
   3.3066666666666666E-005     1.1768033466646242E-025
   3.3266666666666658E-005     2.0396511772226445E-026
   3.3466666666666662E-005    -1.1587257362048696E-025
   3.3666666666666667E-005    -2.7477511838616117E-025
   3.3866666666666659E-005    -4.2961113448922764E-025
   3.4066666666666664E-005    -5.4588947843783766E-025
   3.4266666666666668E-005    -5.8641114307535825E-025
   3.4466666666666660E-005    -5.1851738553325269E-025
   3.4666666666666665E-005    -3.2254397420423734E-025
   3.4866666666666656E-005     3.2287830331663132E-029
   3.5066666666666661E-005     4.2064252555396338E-025
   3.5266666666666666E-005     8.8181524530398505E-025
   3.5466666666666657E-005     1.3010844626295718E-024
   3.5666666666666662E-005     1.5813734475722917E-024
   3.5866666666666667E-005     1.6273861264520229E-024
   3.6066666666666658E-005     1.3660870942578489E-024
   3.6266666666666663E-005     7.6793139002556026E-025
   3.6466666666666668E-005    -1.3555429575315353E-025
   3.6666666666666659E-005    -1.2425889473932365E-024
   3.6866666666666664E-005    -2.3844999161880940E-024
   3.7066666666666669E-005    -3.3440878734540739E-024
   3.7266666666666660E-005    -3.8887888343305829E-024
   3.7466666666666665E-005    -3.8151281584446657E-024
   3.7666666666666656E-005    -2.9976239109703053E-024
   3.7866666666666661E-005    -1.4326539384535662E-024
   3.8066666666666666E-005     7.3338672725167297E-025
   3.8266666666666657E-005     3.2013868800041189E-024
   3.8466666666666662E-005     5.5487182341361408E-024
   3.8666666666666667E-005     7.2912117884343928E-024
   3.8866666666666658E-005     7.9717139708533412E-024
   3.9066666666666663E-005     7.2616957688046434E-024
   3.9266666666666668E-005     5.0563503057119937E-024
   3.9466666666666659E-005     1.5406601390386089E-024
   3.9666666666666664E-005    -2.7946320534713452E-024
   3.9866666666666655E-005    -7.2015766792177501E-024
   4.0066666666666660E-005    -1.0791023171161810E-023
   4.0266666666666665E-005    -1.2704113418240442E-023
   4.0466666666666656E-005    -1.2311715071321786E-023
   4.0666666666666661E-005    -9.4013610673590444E-024
   4.0866666666666666E-005    -4.3048632635976377E-024
   4.1066666666666657E-005     2.0771928396720070E-024
   4.1266666666666662E-005     8.3836587132815640E-024
   4.1466666666666667E-005     1.3038588864332341E-023
   4.1666666666666658E-005     1.4607357892361011E-023
   4.1866666666666663E-005     1.2202265353887802E-023
   4.2066666666666668E-005     5.8490951675998611E-024
   4.2266666666666660E-005    -3.2874991336332709E-024
   4.2466666666666664E-005    -1.2914579930031598E-023
   4.2666666666666656E-005    -1.9920201982670638E-023
   4.2866666666666661E-005    -2.0988313337452647E-023
   4.3066666666666665E-005    -1.3453580976437433E-023
   4.3266666666666657E-005     3.7467642891068550E-024
   4.3466666666666662E-005     2.9231682605071516E-023
   4.3666666666666666E-005     5.8687515303196152E-023
   4.3866666666666658E-005     8.4960736010860928E-023
   4.4066666666666663E-005     9.8892076395049173E-023
   4.4266666666666667E-005     9.0925881295088758E-023
   4.4466666666666659E-005     5.3359731765063449E-023
   4.4666666666666664E-005    -1.7087669107007950E-023
   4.4866666666666655E-005    -1.1687997936759905E-022
   4.5066666666666660E-005    -2.3403470952215571E-022
   4.5266666666666665E-005    -3.4786653035198077E-022
   4.5466666666666656E-005    -4.3058527318310565E-022
   4.5666666666666661E-005    -4.5097428573541827E-022
   4.5866666666666666E-005    -3.8000086136769283E-022
   4.6066666666666657E-005    -1.9776556091628410E-022
   4.6266666666666662E-005     9.9245871044709934E-023
   4.6466666666666667E-005     4.9199192260683896E-022
   4.6666666666666658E-005     9.3533730492182036E-022
   4.6866666666666663E-005     1.3586016459818874E-021
   4.7066666666666668E-005     1.6712464330617383E-021
   4.7266666666666659E-005     1.7740556329915423E-021
   4.7466666666666664E-005     1.5752221942233041E-021
   4.7666666666666655E-005     1.0097134839596603E-021
   4.7866666666666660E-005     5.9275399693315817E-023
   4.8066666666666665E-005    -1.2303113048021330E-021
   4.8266666666666656E-005    -2.7384551290197820E-021
   4.8466666666666661E-005    -4.2689620113189686E-021
   4.8666666666666666E-005    -5.5618715620302766E-021
   4.8866666666666657E-005    -6.3191065413117732E-021
   4.9066666666666662E-005    -6.2431707148445517E-021
   4.9266666666666667E-005    -5.0859256508372593E-021
   4.9466666666666658E-005    -2.7023130311958616E-021
   4.9666666666666663E-005     8.9795059915962748E-022
   4.9866666666666655E-005     5.5088366831859832E-021
   5.0066666666666659E-005     1.0705040292298836E-020
   5.0266666666666664E-005     1.5845248863041321E-020
   5.0466666666666656E-005     2.0107445603237114E-020
   5.0666666666666660E-005     2.2559204092082887E-020
   5.0866666666666665E-005     2.2262251098937751E-020
   5.1066666666666657E-005     1.8406248507119511E-020
   5.1266666666666661E-005     1.0462109301736803E-020
   5.1466666666666666E-005    -1.6595111110437299E-021
   5.1666666666666658E-005    -1.7463328847881549E-020
   5.1866666666666662E-005    -3.5760597924884333E-020
   5.2066666666666667E-005    -5.4621217388714076E-020
   5.2266666666666659E-005    -7.1412188954670663E-020
   5.2466666666666664E-005    -8.2945574697846064E-020
   5.2666666666666655E-005    -8.5752941686320077E-020
   5.2866666666666660E-005    -7.6492687040531610E-020
   5.3066666666666665E-005    -5.2480167001871401E-020
   5.3266666666666656E-005    -1.2309231074548990E-020
   5.3466666666666661E-005     4.3492520066707441E-020
   5.3666666666666666E-005     1.1186037094327899E-019
   5.3866666666666657E-005     1.8675296756170626E-019
   5.4066666666666662E-005     2.5900723284230444E-019
   5.4266666666666667E-005     3.1662305084361362E-019
   5.4466666666666658E-005     3.4559618917162567E-019
   5.4666666666666663E-005     3.3137493818909603E-019
   5.4866666666666668E-005     2.6094087092172372E-019
   5.5066666666666659E-005     1.2541076552433105E-019
   5.5266666666666664E-005    -7.7070097882184837E-020
   5.5466666666666655E-005    -3.3850880228569476E-019
   5.5666666666666660E-005    -6.3880920149937606E-019
   5.5866666666666665E-005    -9.4465576917204297E-019
   5.6066666666666656E-005    -1.2101311149648117E-018
   5.6266666666666661E-005    -1.3795852673008935E-018
   5.6466666666666666E-005    -1.3930858888735246E-018
   5.6666666666666657E-005    -1.1944612122357603E-018
   5.6866666666666662E-005    -7.4152755938802191E-019
   5.7066666666666667E-005    -1.7591146023979465E-020
   5.7266666666666658E-005     9.5720440925720211E-019
   5.7466666666666663E-005     2.1165632816210855E-018
   5.7666666666666654E-005     3.3429290568781692E-018
   5.7866666666666659E-005     4.4687874246263847E-018
   5.8066666666666664E-005     5.2862709988584532E-018
   5.8266666666666655E-005     5.5662377218025384E-018
   5.8466666666666660E-005     5.0868716675770329E-018
   5.8666666666666665E-005     3.6703633324784567E-018
   5.8866666666666656E-005     1.2245133042752712E-018
   5.9066666666666661E-005    -2.2156158852276261E-018
   5.9266666666666666E-005    -6.4523987935724346E-018
   5.9466666666666657E-005    -1.1104036146964891E-017
   5.9666666666666662E-005    -1.5604100511322825E-017
   5.9866666666666667E-005    -1.9228736472358737E-017
   6.0066666666666659E-005    -2.1155789366921474E-017
   6.0266666666666663E-005    -2.0556617781496238E-017
   6.0466666666666655E-005    -1.6716774240492404E-017
   6.0666666666666660E-005    -9.1763727931100904E-018
   6.0866666666666664E-005     2.1245356483648716E-018
   6.1066666666666656E-005     1.6715182744993852E-017
   6.1266666666666661E-005     3.3500973627075231E-017
   6.1466666666666665E-005     5.0732356778971575E-017
   6.1666666666666657E-005     6.6058048148443752E-017
   6.1866666666666662E-005     7.6679444260318653E-017
   6.2066666666666666E-005     7.9613831087403566E-017
   6.2266666666666658E-005     7.2060858149071671E-017
   6.2466666666666663E-005     5.1851254215070004E-017
   6.2666666666666668E-005     1.7939459682409086E-017
   6.2866666666666659E-005    -2.9114772328396447E-017
   6.3066666666666664E-005    -8.6744670598092499E-017
   6.3266666666666655E-005    -1.5013222238719046E-016
   6.3466666666666660E-005    -2.1219972626755179E-016
   6.3666666666666665E-005    -2.6390621725798011E-016
   6.3866666666666656E-005    -2.9489727344366324E-016
   6.4066666666666661E-005    -2.9452373191392409E-016
   6.4266666666666666E-005    -2.5320080606564942E-016
   6.4466666666666657E-005    -1.6402607735122314E-016
   6.4666666666666662E-005    -2.4517840151224879E-017
   6.4866666666666667E-005     1.6172116835284618E-016
   6.5066666666666658E-005     3.8365632073922447E-016
   6.5266666666666663E-005     6.2206136704047259E-016
   6.5466666666666654E-005     8.4962137406199107E-016
   6.5666666666666659E-005     1.0321419393604790E-015
   6.5866666666666664E-005     1.1310360005677340E-015
   6.6066666666666655E-005     1.1071441657410056E-015
   6.6266666666666660E-005     9.2578721195380820E-016
   6.6466666666666665E-005     5.6275566702419311E-016
   6.6666666666666656E-005     1.0730173671148074E-017
   6.6866666666666661E-005    -7.1458404641848070E-016
   6.7066666666666666E-005    -1.5695058879665932E-015
   6.7266666666666657E-005    -2.4796252138576834E-015
   6.7466666666666662E-005    -3.3402837448597532E-015
   6.7666666666666667E-005    -4.0212131076410116E-015
   6.7866666666666658E-005    -4.3759852343019500E-015
   6.8066666666666663E-005    -4.2564934493998386E-015
   6.8266666666666655E-005    -3.5320829208207016E-015
   6.8466666666666659E-005    -2.1122109087007377E-015
   6.8666666666666664E-005     2.9288837599057206E-017
   6.8866666666666656E-005     2.8310615130140975E-015
   6.9066666666666660E-005     6.1256203017986954E-015
   6.9266666666666665E-005     9.6291035786718292E-015
   6.9466666666666657E-005     1.2943289391393730E-014
   6.9666666666666661E-005     1.5573310598992335E-014
   6.9866666666666666E-005     1.6963445825433042E-014
   7.0066666666666658E-005     1.6551701415706832E-014
   7.0266666666666662E-005     1.3841641523823327E-014
   7.0466666666666654E-005     8.4871337591835815E-015
   7.0666666666666659E-005     3.8277270655656063E-016
   7.0866666666666664E-005    -1.0250210816036779E-014
   7.1066666666666655E-005    -2.2795076237832820E-014
   7.1266666666666660E-005    -3.6201754484779802E-014
   7.1466666666666665E-005    -4.8994056018160717E-014
   7.1666666666666656E-005    -5.9334149735395386E-014
   7.1866666666666661E-005    -6.5152608785465360E-014
   7.2066666666666666E-005    -6.4346192762097798E-014
   7.2266666666666657E-005    -5.5037615768029416E-014
   7.2466666666666662E-005    -3.5881708167857448E-014
   7.2666666666666667E-005    -6.3922493329354041E-015
   7.2866666666666658E-005     3.2746249695137994E-014
   7.3066666666666663E-005     7.9425493417460691E-014
   7.3266666666666654E-005     1.2996766477705451E-013
   7.3466666666666659E-005     1.7913565054060443E-013
   7.3666666666666664E-005     2.2034144528480099E-013
   7.3866666666666655E-005     2.4608250550131605E-013
   7.4066666666666660E-005     2.4861498493580769E-013
   7.4266666666666665E-005     2.2084642599916326E-013
   7.4466666666666656E-005     1.5739898262794733E-013
   7.4666666666666661E-005     5.5759152313818519E-014
   7.4866666666666666E-005    -8.2602449728332028E-014
   7.5066666666666657E-005    -2.5128567304223692E-013
   7.5266666666666662E-005    -4.3835250642006163E-013
   7.5466666666666653E-005    -6.2622064651851606E-013