  -3.3333333333333335E-005     0.0000000000000000     
  -3.3133333333333337E-005     0.0000000000000000     
  -3.2933333333333332E-005     0.0000000000000000     
  -3.2733333333333334E-005     0.0000000000000000     
  -3.2533333333333336E-005     0.0000000000000000     
  -3.2333333333333338E-005     0.0000000000000000     
  -3.2133333333333333E-005     0.0000000000000000     
  -3.1933333333333335E-005     0.0000000000000000     
  -3.1733333333333337E-005     0.0000000000000000     
  -3.1533333333333332E-005     0.0000000000000000     
  -3.1333333333333334E-005     0.0000000000000000     
  -3.1133333333333336E-005     0.0000000000000000     
  -3.0933333333333338E-005     0.0000000000000000     
  -3.0733333333333333E-005     0.0000000000000000     
  -3.0533333333333335E-005     0.0000000000000000     
  -3.0333333333333337E-005     0.0000000000000000     
  -3.0133333333333335E-005     0.0000000000000000     
  -2.9933333333333334E-005     0.0000000000000000     
  -2.9733333333333336E-005     0.0000000000000000     
  -2.9533333333333334E-005     0.0000000000000000     
  -2.9333333333333336E-005     0.0000000000000000     
  -2.9133333333333334E-005     0.0000000000000000     
  -2.8933333333333336E-005     0.0000000000000000     
  -2.8733333333333335E-005     0.0000000000000000     
  -2.8533333333333333E-005     0.0000000000000000     
  -2.8333333333333335E-005     0.0000000000000000     
  -2.8133333333333337E-005     0.0000000000000000     
  -2.7933333333333336E-005     0.0000000000000000     
  -2.7733333333333334E-005     0.0000000000000000     
  -2.7533333333333336E-005     0.0000000000000000     
  -2.7333333333333335E-005     0.0000000000000000     
  -2.7133333333333333E-005     0.0000000000000000     
  -2.6933333333333335E-005     0.0000000000000000     
  -2.6733333333333337E-005     0.0000000000000000     
  -2.6533333333333336E-005     0.0000000000000000     
  -2.6333333333333334E-005     0.0000000000000000     
  -2.6133333333333336E-005     0.0000000000000000     
  -2.5933333333333335E-005     0.0000000000000000     
  -2.5733333333333333E-005     0.0000000000000000     
  -2.5533333333333335E-005     0.0000000000000000     
  -2.5333333333333337E-005     0.0000000000000000     
  -2.5133333333333336E-005     0.0000000000000000     
  -2.4933333333333334E-005     0.0000000000000000     
  -2.4733333333333336E-005     0.0000000000000000     
  -2.4533333333333334E-005     0.0000000000000000     
  -2.4333333333333333E-005     0.0000000000000000     
  -2.4133333333333335E-005     0.0000000000000000     
  -2.3933333333333337E-005     0.0000000000000000     
  -2.3733333333333335E-005     0.0000000000000000     
  -2.3533333333333334E-005     0.0000000000000000     
  -2.3333333333333336E-005     0.0000000000000000     
  -2.3133333333333338E-005     0.0000000000000000     
  -2.2933333333333336E-005     0.0000000000000000     
  -2.2733333333333335E-005     0.0000000000000000     
  -2.2533333333333337E-005     0.0000000000000000     
  -2.2333333333333335E-005     0.0000000000000000     
  -2.2133333333333334E-005     0.0000000000000000     
  -2.1933333333333336E-005     0.0000000000000000     
  -2.1733333333333338E-005     0.0000000000000000     
  -2.1533333333333336E-005     0.0000000000000000     
  -2.1333333333333335E-005     0.0000000000000000     
  -2.1133333333333337E-005     0.0000000000000000     
  -2.0933333333333335E-005     0.0000000000000000     
  -2.0733333333333334E-005     0.0000000000000000     
  -2.0533333333333336E-005     0.0000000000000000     
  -2.0333333333333337E-005     0.0000000000000000     
  -2.0133333333333336E-005     0.0000000000000000     
  -1.9933333333333334E-005     0.0000000000000000     
  -1.9733333333333336E-005     0.0000000000000000     
  -1.9533333333333335E-005     0.0000000000000000     
  -1.9333333333333333E-005     0.0000000000000000     
  -1.9133333333333335E-005     0.0000000000000000     
  -1.8933333333333337E-005     0.0000000000000000     
  -1.8733333333333336E-005     0.0000000000000000     
  -1.8533333333333334E-005     0.0000000000000000     
  -1.8333333333333336E-005     0.0000000000000000     
  -1.8133333333333335E-005     0.0000000000000000     
  -1.7933333333333337E-005     0.0000000000000000     
  -1.7733333333333335E-005     0.0000000000000000     
  -1.7533333333333337E-005     0.0000000000000000     
  -1.7333333333333336E-005     0.0000000000000000     
  -1.7133333333333334E-005     0.0000000000000000     
  -1.6933333333333336E-005     0.0000000000000000     
  -1.6733333333333335E-005     0.0000000000000000     
  -1.6533333333333337E-005     0.0000000000000000     
  -1.6333333333333335E-005     0.0000000000000000     
  -1.6133333333333337E-005     0.0000000000000000     
  -1.5933333333333336E-005     0.0000000000000000     
  -1.5733333333333334E-005     0.0000000000000000     
  -1.5533333333333336E-005     0.0000000000000000     
  -1.5333333333333334E-005     0.0000000000000000     
  -1.5133333333333336E-005     0.0000000000000000     
  -1.4933333333333335E-005     0.0000000000000000     
  -1.4733333333333337E-005     0.0000000000000000     
  -1.4533333333333335E-005     0.0000000000000000     
  -1.4333333333333337E-005     0.0000000000000000     
  -1.4133333333333336E-005     0.0000000000000000     
  -1.3933333333333334E-005     0.0000000000000000     
  -1.3733333333333336E-005     0.0000000000000000     
  -1.3533333333333335E-005     0.0000000000000000     
  -1.3333333333333337E-005     0.0000000000000000     
  -1.3133333333333335E-005     0.0000000000000000     
  -1.2933333333333337E-005     0.0000000000000000     
  -1.2733333333333336E-005     0.0000000000000000     
  -1.2533333333333338E-005     0.0000000000000000     
  -1.2333333333333336E-005     0.0000000000000000     
  -1.2133333333333335E-005     0.0000000000000000     
  -1.1933333333333337E-005     0.0000000000000000     
  -1.1733333333333335E-005     0.0000000000000000     
  -1.1533333333333337E-005     0.0000000000000000     
  -1.1333333333333336E-005     0.0000000000000000     
  -1.1133333333333337E-005     0.0000000000000000     
  -1.0933333333333336E-005     0.0000000000000000     
  -1.0733333333333334E-005     0.0000000000000000     
  -1.0533333333333336E-005     0.0000000000000000     
  -1.0333333333333335E-005     0.0000000000000000     
  -1.0133333333333337E-005     0.0000000000000000     
  -9.9333333333333354E-006     0.0000000000000000     
  -9.7333333333333373E-006     0.0000000000000000     
  -9.5333333333333358E-006     0.0000000000000000     
  -9.3333333333333343E-006     0.0000000000000000     
  -9.1333333333333362E-006     0.0000000000000000     
  -8.9333333333333348E-006     0.0000000000000000     
  -8.7333333333333367E-006     0.0000000000000000     
  -8.5333333333333352E-006     0.0000000000000000     
  -8.3333333333333371E-006     0.0000000000000000     
  -8.1333333333333356E-006     0.0000000000000000     
  -7.9333333333333376E-006     0.0000000000000000     
  -7.7333333333333361E-006     0.0000000000000000     
  -7.5333333333333346E-006     0.0000000000000000     
  -7.3333333333333365E-006     0.0000000000000000     
  -7.1333333333333351E-006     0.0000000000000000     
  -6.9333333333333370E-006     0.0000000000000000     
  -6.7333333333333355E-006     0.0000000000000000     
  -6.5333333333333374E-006     0.0000000000000000     
  -6.3333333333333359E-006     0.0000000000000000     
  -6.1333333333333379E-006     0.0000000000000000     
  -5.9333333333333364E-006     0.0000000000000000     
  -5.7333333333333349E-006     0.0000000000000000     
  -5.5333333333333368E-006     0.0000000000000000     
  -5.3333333333333354E-006     0.0000000000000000     
  -5.1333333333333373E-006     0.0000000000000000     
  -4.9333333333333358E-006     0.0000000000000000     
  -4.7333333333333377E-006     0.0000000000000000     
  -4.5333333333333362E-006     0.0000000000000000     
  -4.3333333333333348E-006     0.0000000000000000     
  -4.1333333333333367E-006     0.0000000000000000     
  -3.9333333333333352E-006     0.0000000000000000     
  -3.7333333333333371E-006     0.0000000000000000     
  -3.5333333333333356E-006     0.0000000000000000     
  -3.3333333333333376E-006     0.0000000000000000     
  -3.1333333333333361E-006     0.0000000000000000     
  -2.9333333333333346E-006     0.0000000000000000     
  -2.7333333333333365E-006     0.0000000000000000     
  -2.5333333333333384E-006     0.0000000000000000     
  -2.3333333333333336E-006     0.0000000000000000     
  -2.1333333333333355E-006     0.0000000000000000     
  -1.9333333333333374E-006     0.0000000000000000     
  -1.7333333333333393E-006     0.0000000000000000     
  -1.5333333333333345E-006     0.0000000000000000     
  -1.3333333333333364E-006     0.0000000000000000     
  -1.1333333333333383E-006     0.0000000000000000     
  -9.3333333333333343E-007     0.0000000000000000     
  -7.3333333333333535E-007     0.0000000000000000     
  -5.3333333333333726E-007     0.0000000000000000     
  -3.3333333333333918E-007     0.0000000000000000     
  -1.3333333333333432E-007     0.0000000000000000     
   6.6666666666663770E-008     1.3777668796029497E-038
   2.6666666666666185E-007     4.5604905394238162E-038
   4.6666666666666672E-007     9.3549194496758746E-038
   6.6666666666666480E-007     1.4657559516062157E-037
   8.6666666666666289E-007     1.6742523475161766E-037
   1.0666666666666610E-006     1.1967156147660225E-037
   1.2666666666666658E-006    -3.3722998639953601E-038
   1.4666666666666639E-006    -3.1568214144089929E-037
   1.6666666666666620E-006    -7.1574303270599658E-037
   1.8666666666666669E-006    -1.1696824374155310E-036
   2.0666666666666649E-006    -1.5498689255584760E-036
   2.2666666666666630E-006    -1.6684371606762075E-036
   2.4666666666666611E-006    -1.3025232897559808E-036
   2.6666666666666660E-006    -2.4497179136237815E-037
   2.8666666666666641E-006     1.6302100973018333E-036
   3.0666666666666622E-006     4.2735762931491408E-036
   3.2666666666666602E-006     7.3709988853121722E-036
   3.4666666666666651E-006     1.0278389442120653E-035
   3.6666666666666632E-006     1.2014318517824847E-035
   3.8666666666666613E-006     1.1346152863836666E-035
   4.0666666666666661E-006     6.9972743336972270E-036
   4.2666666666666642E-006    -2.0137753963019583E-036
   4.4666666666666623E-006    -1.5922989336849464E-035
   4.6666666666666604E-006    -3.3726347765704113E-035
   4.8666666666666652E-006    -5.2753494536923132E-035
   5.0666666666666633E-006    -6.8469222638381030E-035
   5.2666666666666614E-006    -7.4683730663392295E-035
   5.4666666666666663E-006    -6.4338938417830905E-035
   5.6666666666666644E-006    -3.0967153153496522E-035
   5.8666666666666624E-006     2.9218200656493423E-035
   6.0666666666666605E-006     1.1483623570430004E-034
   6.2666666666666654E-006     2.1693181160236540E-034
   6.4666666666666635E-006     3.1735036802565267E-034
   6.6666666666666616E-006     3.8875076733181192E-034
   6.8666666666666664E-006     3.9710844033066222E-034
   7.0666666666666645E-006     3.0731981962878840E-034
   7.2666666666666626E-006     9.1985928440416511E-035
   7.4666666666666607E-006    -2.5737251364937245E-034
   7.6666666666666655E-006    -7.1845310142621056E-034
   7.8666666666666636E-006    -1.2285189724424616E-033
   8.0666666666666617E-006    -1.6806406402271030E-033
   8.2666666666666598E-006    -1.9297600355900010E-033
   8.4666666666666647E-006    -1.8118056059697155E-033
   8.6666666666666627E-006    -1.1771839402806022E-033
   8.8666666666666608E-006     6.3212461263082945E-035
   9.0666666666666657E-006     1.8855550195143520E-033
   9.2666666666666638E-006     4.1048769662653072E-033
   9.4666666666666619E-006     6.3457850300591906E-033
   9.6666666666666599E-006     8.0487067983641454E-033
   9.8666666666666648E-006     8.5268163503580637E-033
   1.0066666666666663E-005     7.0825900319423852E-033
   1.0266666666666661E-005     3.1815838263859876E-033
   1.0466666666666666E-005    -3.3349700434629569E-033
   1.0666666666666664E-005    -1.2035668456930530E-032
   1.0866666666666662E-005    -2.1736794847552428E-032
   1.1066666666666660E-005    -3.0457963760455602E-032
   1.1266666666666665E-005    -3.5560232255030266E-032
   1.1466666666666663E-005    -3.4113712987946515E-032
   1.1666666666666661E-005    -2.3504127094126721E-032
   1.1866666666666666E-005    -2.2311033388820716E-033
   1.2066666666666664E-005     2.9218399090041746E-032
   1.2266666666666662E-005     6.7608316611201947E-032
   1.2466666666666660E-005     1.0654335200514072E-031
   1.2666666666666665E-005     1.3666639391516004E-031
   1.2866666666666663E-005     1.4667696258148018E-031
   1.3066666666666661E-005     1.2527136326727193E-031
   1.3266666666666666E-005     6.3917987278645720E-032
   1.3466666666666664E-005    -3.9862062565091878E-032
   1.3666666666666662E-005    -1.7930299636764890E-031
   1.3866666666666660E-005    -3.3611109807101307E-031
   1.4066666666666665E-005    -4.8002835256506776E-031
   1.4266666666666663E-005    -5.7111599921706583E-031
   1.4466666666666661E-005    -5.6532542000536718E-031
   1.4666666666666666E-005    -4.2335560700231977E-031
   1.4866666666666664E-005    -1.2199830504189885E-031
   1.5066666666666662E-005     3.3375223355721798E-031
   1.5266666666666661E-005     9.0042180784286343E-031
   1.5466666666666665E-005     1.4908019965603010E-030
   1.5666666666666663E-005     1.9769691567835551E-030
   1.5866666666666662E-005     2.2041243182437997E-030
   1.6066666666666660E-005     2.0162220164625974E-030
   1.6266666666666665E-005     1.2919248093220815E-030
   1.6466666666666663E-005    -1.3587938869234101E-032
   1.6666666666666661E-005    -1.8285331844555044E-030
   1.6866666666666666E-005    -3.9362163726550172E-030
   1.7066666666666664E-005    -5.9696041801424465E-030
   1.7266666666666662E-005    -7.4386930092916466E-030
   1.7466666666666660E-005    -7.7966293464051680E-030
   1.7666666666666665E-005    -6.5437163734004362E-030
   1.7866666666666663E-005    -3.3592739651584396E-030
   1.8066666666666661E-005     1.7588160251014555E-030
   1.8266666666666666E-005     8.3762424770668138E-030
   1.8466666666666664E-005     1.5561089644207993E-029
   1.8666666666666662E-005     2.1913977205091420E-029
   1.8866666666666660E-005     2.5715543238927541E-029
   1.9066666666666665E-005     2.5199675380159575E-029
   1.9266666666666663E-005     1.8935039045079386E-029
   1.9466666666666661E-005     6.2664648400527799E-030
   1.9666666666666666E-005    -1.2262950413088927E-029
   1.9866666666666664E-005    -3.4611497911487251E-029
   2.0066666666666662E-005    -5.7170791046366533E-029
   2.0266666666666660E-005    -7.5026087560780597E-029
   2.0466666666666665E-005    -8.2599776974428020E-029
   2.0666666666666663E-005    -7.4665234493044267E-029
   2.0866666666666661E-005    -4.7629932713397681E-029
   2.1066666666666659E-005    -8.9213363227408564E-031
   2.1266666666666664E-005     6.2007372897175122E-029
   2.1466666666666662E-005     1.3276459460650388E-028
   2.1666666666666660E-005     1.9853909851196258E-028
   2.1866666666666665E-005     2.4326052793453312E-028
   2.2066666666666663E-005     2.5008349587438948E-028
   2.2266666666666661E-005     2.0482703107620601E-028
   2.2466666666666659E-005     9.9962215979011238E-029
   2.2666666666666664E-005    -6.1551168241598396E-029
   2.2866666666666662E-005    -2.6347157380867304E-028
   2.3066666666666660E-005    -4.7547637726874015E-028
   2.3266666666666665E-005    -6.5517214109363156E-028
   2.3466666666666663E-005    -7.5337429784471591E-028
   2.3666666666666661E-005    -7.2254584092841221E-028
   2.3866666666666660E-005    -5.2756045631277080E-028
   2.4066666666666664E-005    -1.5718697519353815E-028
   2.4266666666666662E-005     3.6596140432082239E-028
   2.4466666666666661E-005     9.7963755512918379E-028
   2.4666666666666665E-005     1.5828593248651738E-027
   2.4866666666666663E-005     2.0453572454246772E-027
   2.5066666666666662E-005     2.2261516078380957E-027
   2.5266666666666660E-005     2.0000601435046672E-027
   2.5466666666666665E-005     1.2888698744178538E-027
   2.5666666666666663E-005     9.1943197395441799E-029
   2.5866666666666661E-005    -1.4903985097230536E-027
   2.6066666666666666E-005    -3.2477923469034041E-027
   2.6266666666666664E-005    -4.8711552303535053E-027
   2.6466666666666662E-005    -5.9879592494588979E-027
   2.6666666666666660E-005    -6.2209644171066878E-027
   2.6866666666666665E-005    -5.2648237850780116E-027
   2.7066666666666663E-005    -2.9696298998495667E-027
   2.7266666666666661E-005     5.8407037051725193E-028
   2.7466666666666666E-005     5.0368029241262959E-027
   2.7666666666666664E-005     9.7456839195975992E-027
   2.7866666666666662E-005     1.3837003922821469E-026
   2.8066666666666667E-005     1.6320636956784583E-026
   2.8266666666666658E-005     1.6259457095799200E-026
   2.8466666666666663E-005     1.2973700432646046E-026
   2.8666666666666668E-005     6.2475880874719080E-027
   2.8866666666666659E-005    -3.5035924361869723E-027
   2.9066666666666664E-005    -1.5150582130274850E-026
   2.9266666666666669E-005    -2.6890394714334393E-026
   2.9466666666666660E-005    -3.6433365262821502E-026
   2.9666666666666665E-005    -4.1336668886178697E-026
   2.9866666666666656E-005    -3.9453759594517205E-026
   3.0066666666666661E-005    -2.9437789896152324E-026
   3.0266666666666666E-005    -1.1210486916656244E-026
   3.0466666666666657E-005     1.3707009814551153E-026
   3.0666666666666662E-005     4.2102193683449557E-026
   3.0866666666666667E-005     6.9294990213931856E-026
   3.1066666666666658E-005     8.9708732125812767E-026
   3.1266666666666663E-005     9.7756629451119309E-026
   3.1466666666666668E-005     8.8940911620048197E-026
   3.1666666666666659E-005     6.0994262968501980E-026
   3.1866666666666664E-005     1.4845068011336814E-026
   3.2066666666666656E-005    -4.4827175013579547E-026
   3.2266666666666660E-005    -1.0965063044578254E-025
   3.2466666666666665E-005    -1.6836136912377510E-025
   3.2666666666666657E-005    -2.0835169896377442E-025
   3.2866666666666661E-005    -2.1782466118841107E-025
   3.3066666666666666E-005    -1.8825984311610279E-025
   3.3266666666666658E-005    -1.1676957009948147E-025
   3.3466666666666662E-005    -7.8562565106323235E-027
   3.3666666666666667E-005     1.2590245931825801E-025
   3.3866666666666659E-005     2.6459851688597066E-025
   3.4066666666666664E-005     3.8331412055697086E-025
   3.4266666666666668E-005     4.5587936446837553E-025
   3.4466666666666660E-005     4.5961314174039973E-025
   3.4666666666666665E-005     3.8030730326101111E-025
   3.4866666666666656E-005     2.1652217787818132E-025
   3.5066666666666661E-005    -1.7780065068554432E-026
   3.5266666666666666E-005    -2.9308778474376831E-025
   3.5466666666666657E-005    -5.6715578793601200E-025
   3.5666666666666662E-005    -7.9075382626689620E-025
   3.5866666666666667E-005    -9.1572078283322360E-025
   3.6066666666666658E-005    -9.0412137208285384E-025
   3.6266666666666663E-005    -7.3687176681951967E-025
   3.6466666666666668E-005    -4.2003322911229330E-025
   3.6666666666666659E-005     1.2843487538734047E-026
   3.6866666666666664E-005     5.0338673754827422E-025
   3.7066666666666669E-005     9.7626960439823605E-025
   3.7266666666666660E-005     1.3513874601499606E-024
   3.7466666666666665E-005     1.5584026068731610E-024
   3.7666666666666656E-005     1.5508982716894067E-024
   3.7866666666666661E-005     1.3170488379837557E-024
   3.8066666666666666E-005     8.8402139343304876E-025
   3.8266666666666657E-005     3.1433267173798525E-025
   3.8466666666666662E-005    -3.0600700909237940E-025
   3.8666666666666667E-005    -8.8577374932638409E-025
   3.8866666666666658E-005    -1.3495428075307144E-024
   3.9066666666666663E-005    -1.6563611847160169E-024
   3.9266666666666668E-005    -1.8106120878945390E-024
   3.9466666666666659E-005    -1.8605089206563521E-024
   3.9666666666666664E-005    -1.8819750091787737E-024
   3.9866666666666655E-005    -1.9491522344999057E-024
   4.0066666666666660E-005    -2.0968745248268187E-024
   4.0266666666666665E-005    -2.2842725743818224E-024
   4.0466666666666656E-005    -2.3711989324651625E-024
   4.0666666666666661E-005    -2.1193542996124492E-024
   4.0866666666666666E-005    -1.2271447271984327E-024
   4.1066666666666657E-005     5.9882441176088321E-025
   4.1266666666666662E-005     3.5415768344934385E-024
   4.1466666666666667E-005     7.5571557322461212E-024
   4.1666666666666658E-005     1.2269456581490001E-023
   4.1866666666666663E-005     1.6908837495237967E-023
   4.2066666666666668E-005     2.0327577642735821E-023
   4.2266666666666660E-005     2.1118252928038841E-023
   4.2466666666666664E-005     1.7845523045488344E-023
   4.2666666666666656E-005     9.3785558874500101E-024
   4.2866666666666661E-005    -4.7168470546406690E-024
   4.3066666666666665E-005    -2.3795474868681617E-023
   4.3266666666666657E-005    -4.5850233486684445E-023
   4.3466666666666662E-005    -6.7429665543968163E-023
   4.3666666666666666E-005    -8.3844737643688384E-023
   4.3866666666666658E-005    -8.9720829998047623E-023
   4.4066666666666663E-005    -7.9894570303335722E-023
   4.4266666666666667E-005    -5.0580943982873468E-023
   4.4466666666666659E-005    -6.5407691981585495E-025
   4.4666666666666664E-005     6.7189858139668217E-023
   4.4866666666666655E-005     1.4566936344033125E-022
   4.5066666666666660E-005     2.2284290635695727E-022
   4.5266666666666665E-005     2.8296200856562506E-022
   4.5466666666666656E-005     3.0837680976889006E-022
   4.5666666666666661E-005     2.8244524787472012E-022
   4.5866666666666666E-005     1.9317792454475320E-022
   4.6066666666666657E-005     3.7122374250071418E-023
   4.6266666666666662E-005    -1.7721039532467020E-022
   4.6466666666666667E-005    -4.2719612478588444E-022
   4.6666666666666658E-005    -6.7604036620635663E-022
   4.6866666666666663E-005    -8.7546677593983132E-022
   4.7066666666666668E-005    -9.7146546830671087E-022
   4.7266666666666659E-005    -9.1291547985828733E-022
   4.7466666666666664E-005    -6.6229025557109024E-022
   4.7666666666666655E-005    -2.0701848281596861E-022
   4.7866666666666660E-005     4.3047107136757861E-022
   4.8066666666666665E-005     1.1863184632494532E-021
   4.8266666666666656E-005     1.9547014986257882E-021
   4.8466666666666661E-005     2.5950459214926686E-021
   4.8666666666666666E-005     2.9479002489544063E-021
   4.8866666666666657E-005     2.8590486111452801E-021
   4.9066666666666662E-005     2.2097837239186116E-021
   4.9266666666666667E-005     9.4953043984145887E-022
   4.9466666666666658E-005    -8.7451509414377270E-022
   4.9666666666666663E-005    -3.0970306544194169E-021
   4.9866666666666655E-005    -5.4298982880304222E-021
   5.0066666666666659E-005    -7.4785698064539002E-021
   5.0266666666666664E-005    -8.7825336082320851E-021
   5.0466666666666656E-005    -8.8794518726007372E-021
   5.0666666666666660E-005    -7.3881777063126075E-021
   5.0866666666666665E-005    -4.1011546107925922E-021
   5.1066666666666657E-005     9.2764095073854346E-022
   5.1266666666666661E-005     7.3160894006047513E-021
   5.1466666666666666E-005     1.4326461247863000E-020
   5.1666666666666658E-005     2.0892944067735712E-020
   5.1866666666666662E-005     2.5714767266414842E-020
   5.2066666666666667E-005     2.7417046805912153E-020
   5.2266666666666659E-005     2.4770261100611397E-020
   5.2466666666666664E-005     1.6946694778618230E-020
   5.2666666666666655E-005     3.7798938975276918E-021
   5.2866666666666660E-005    -1.4016578710885322E-020
   5.3066666666666665E-005    -3.4719797919139486E-020
   5.3266666666666656E-005    -5.5604205224459710E-020
   5.3466666666666661E-005    -7.3120801595732833E-020
   5.3666666666666666E-005    -8.3266003787633793E-020
   5.3866666666666657E-005    -8.2130200796067523E-020
   5.4066666666666662E-005    -6.6583644913514540E-020
   5.4266666666666667E-005    -3.5022940226594564E-020
   5.4466666666666658E-005     1.1928727992774597E-020
   5.4666666666666663E-005     7.0895711597359331E-020
   5.4866666666666668E-005     1.3553164343634413E-019
   5.5066666666666659E-005     1.9672771884863301E-019
   5.5266666666666664E-005     2.4332872226500365E-019
   5.5466666666666655E-005     2.6337795180145807E-019
   5.5666666666666660E-005     2.4583298572011380E-019
   5.5866666666666665E-005     1.8260488943430011E-019
   5.6066666666666656E-005     7.0682654428490106E-020
   5.6266666666666661E-005    -8.5969533759838259E-020
   5.6466666666666666E-005    -2.7510096223771272E-019
   5.6666666666666657E-005    -4.7580938438668061E-019
   5.6866666666666662E-005    -6.5942947000182764E-019
   5.7066666666666667E-005    -7.9186909938375148E-019
   5.7266666666666658E-005    -8.3741583526002913E-019
   5.7466666666666663E-005    -7.6381940481207831E-019
   5.7666666666666654E-005    -5.4821333058405968E-019
   5.7866666666666659E-005    -1.8320228185762532E-019
   5.8066666666666664E-005     3.1775579714432256E-019
   5.8266666666666655E-005     9.1665849717169035E-019
   5.8466666666666660E-005     1.5499486979253243E-018
   5.8666666666666665E-005     2.1310306705346380E-018
   5.8866666666666656E-005     2.5568634566720898E-018
   5.9066666666666661E-005     2.7187307084298353E-018
   5.9266666666666666E-005     2.5167133505096846E-018
   5.9466666666666657E-005     1.8767419085508833E-018
   5.9666666666666662E-005     7.6846371375883385E-019
   5.9866666666666667E-005    -7.7840714850475723E-019
   6.0066666666666659E-005    -2.6619596486290959E-018
   6.0266666666666663E-005    -4.7029775588814790E-018
   6.0466666666666655E-005    -6.6493926836325507E-018
   6.0666666666666660E-005    -8.1921618674312210E-018
   6.0866666666666664E-005    -8.9933582554021204E-018
   6.1066666666666656E-005    -8.7257926242014302E-018
   6.1266666666666661E-005    -7.1217694752722894E-018
   6.1466666666666665E-005    -4.0267239073045705E-018
   6.1666666666666657E-005     5.4823318291876095E-019
   6.1866666666666662E-005     6.3822406427381370E-018
   6.2066666666666666E-005     1.3017225494461239E-017
   6.2266666666666658E-005     1.9755136016214008E-017
   6.2466666666666663E-005     2.5686790286188891E-017
   6.2666666666666668E-005     2.9756949033868315E-017
   6.2866666666666659E-005     3.0866707778559257E-017
   6.3066666666666664E-005     2.8009738439364407E-017
   6.3266666666666655E-005     2.0433596172074902E-017
   6.3466666666666660E-005     7.8117224785639949E-018
   6.3666666666666665E-005    -9.5934215415276884E-018
   6.3866666666666656E-005    -3.0799818645505769E-017
   6.4066666666666661E-005    -5.4033909227634076E-017
   6.4266666666666666E-005    -7.6742614389338102E-017
   6.4466666666666657E-005    -9.5711004035701900E-017
   6.4666666666666662E-005    -1.0729969192100651E-016
   6.4866666666666667E-005    -1.0780437797378226E-016
   6.5066666666666658E-005    -9.3925266676987722E-017
   6.5266666666666663E-005    -6.3316262055185686E-017
   6.5466666666666654E-005    -1.5165476410988006E-017
   6.5666666666666659E-005     4.9259144799292183E-017
   6.5866666666666664E-005     1.2617928207425152E-016
   6.6066666666666655E-005     2.0907892601762192E-016
   6.6266666666666660E-005     2.8876711071592666E-016
   6.6466666666666665E-005     3.5380476209561479E-016
   6.6666666666666656E-005     3.9134441528497813E-016
   6.6866666666666661E-005     3.8839202900776406E-016
   6.7066666666666666E-005     3.3344883983741985E-016
   6.7266666666666657E-005     2.1843050062755442E-016
   6.7466666666666662E-005     4.0696743507127127E-017
   6.7666666666666667E-005    -1.9503750203230978E-016
   6.7866666666666658E-005    -4.7518738923379381E-016
   6.8066666666666663E-005    -7.7648600829721302E-016
   6.8266666666666655E-005    -1.0661790054338274E-015
   6.8466666666666659E-005    -1.3034856617607235E-015
   6.8666666666666664E-005    -1.4425000737893889E-015
   6.8866666666666656E-005    -1.4365725372245033E-015
   6.9066666666666660E-005    -1.2440351720500228E-015
   6.9266666666666665E-005    -8.3492582888316179E-016
   6.9466666666666657E-005    -1.9814398213147512E-016
   6.9666666666666661E-005     6.5173991920460558E-016
   6.9866666666666666E-005     1.6689737081164945E-015
   7.0066666666666658E-005     2.7734668724908309E-015
   7.0266666666666662E-005     3.8510403768893600E-015
   7.0466666666666654E-005     4.7580059873595856E-015
   7.0666666666666659E-005     5.3307082564042676E-015
   7.0866666666666664E-005     5.4002373793961105E-015
   7.1066666666666655E-005     4.8119196344523218E-015
   7.1266666666666660E-005     3.4485262969476170E-015
   7.1466666666666665E-005     1.2553708022248903E-015
   7.1666666666666656E-005    -1.7352518127776570E-015
   7.1866666666666661E-005    -5.3834449512167939E-015
   7.2066666666666666E-005    -9.4284694255545448E-015
   7.2266666666666657E-005    -1.3486524654752856E-014
   7.2466666666666662E-005    -1.7062841753661545E-014
   7.2666666666666667E-005    -1.9580552321684860E-014
   7.2866666666666658E-005    -2.0427498871578541E-014
   7.3066666666666663E-005    -1.9020277296525820E-014
   7.3266666666666654E-005    -1.4882584029626660E-014
   7.3466666666666659E-005    -7.7324875425192549E-015
   7.3666666666666664E-005     2.4293023511865949E-015
   7.3866666666666655E-005     1.5240311454240568E-014
   7.4066666666666660E-005     2.9918169314581758E-014
   7.4266666666666665E-005     4.5236004612286829E-014
   7.4466666666666656E-005     5.9543427859739401E-014
   7.4666666666666661E-005     7.0843152307972779E-014
   7.4866666666666666E-005     7.6929436399700984E-014
   7.5066666666666657E-005     7.5589260870555230E-014
   7.5266666666666662E-005     6.4859989395375101E-014
   7.5466666666666653E-005     4.3329201310877627E-014