  -3.3333333333333335E-005     0.0000000000000000     
  -3.3133333333333337E-005     0.0000000000000000     
  -3.2933333333333332E-005     0.0000000000000000     
  -3.2733333333333334E-005     0.0000000000000000     
  -3.2533333333333336E-005     0.0000000000000000     
  -3.2333333333333338E-005     0.0000000000000000     
  -3.2133333333333333E-005     0.0000000000000000     
  -3.1933333333333335E-005     0.0000000000000000     
  -3.1733333333333337E-005     0.0000000000000000     
  -3.1533333333333332E-005     0.0000000000000000     
  -3.1333333333333334E-005     0.0000000000000000     
  -3.1133333333333336E-005     0.0000000000000000     
  -3.0933333333333338E-005     0.0000000000000000     
  -3.0733333333333333E-005     0.0000000000000000     
  -3.0533333333333335E-005     0.0000000000000000     
  -3.0333333333333337E-005     0.0000000000000000     
  -3.0133333333333335E-005     0.0000000000000000     
  -2.9933333333333334E-005     0.0000000000000000     
  -2.9733333333333336E-005     0.0000000000000000     
  -2.9533333333333334E-005     0.0000000000000000     
  -2.9333333333333336E-005     0.0000000000000000     
  -2.9133333333333334E-005     0.0000000000000000     
  -2.8933333333333336E-005     0.0000000000000000     
  -2.8733333333333335E-005     0.0000000000000000     
  -2.8533333333333333E-005     0.0000000000000000     
  -2.8333333333333335E-005     0.0000000000000000     
  -2.8133333333333337E-005     0.0000000000000000     
  -2.7933333333333336E-005     0.0000000000000000     
  -2.7733333333333334E-005     0.0000000000000000     
  -2.7533333333333336E-005     0.0000000000000000     
  -2.7333333333333335E-005     0.0000000000000000     
  -2.7133333333333333E-005     0.0000000000000000     
  -2.6933333333333335E-005     0.0000000000000000     
  -2.6733333333333337E-005     0.0000000000000000     
  -2.6533333333333336E-005     0.0000000000000000     
  -2.6333333333333334E-005     0.0000000000000000     
  -2.6133333333333336E-005     0.0000000000000000     
  -2.5933333333333335E-005     0.0000000000000000     
  -2.5733333333333333E-005     0.0000000000000000     
  -2.5533333333333335E-005     0.0000000000000000     
  -2.5333333333333337E-005     0.0000000000000000     
  -2.5133333333333336E-005     0.0000000000000000     
  -2.4933333333333334E-005     0.0000000000000000     
  -2.4733333333333336E-005     0.0000000000000000     
  -2.4533333333333334E-005     0.0000000000000000     
  -2.4333333333333333E-005     0.0000000000000000     
  -2.4133333333333335E-005     0.0000000000000000     
  -2.3933333333333337E-005     0.0000000000000000     
  -2.3733333333333335E-005     0.0000000000000000     
  -2.3533333333333334E-005     0.0000000000000000     
  -2.3333333333333336E-005     0.0000000000000000     
  -2.3133333333333338E-005     0.0000000000000000     
  -2.2933333333333336E-005     0.0000000000000000     
  -2.2733333333333335E-005     0.0000000000000000     
  -2.2533333333333337E-005     0.0000000000000000     
  -2.2333333333333335E-005     0.0000000000000000     
  -2.2133333333333334E-005     0.0000000000000000     
  -2.1933333333333336E-005     0.0000000000000000     
  -2.1733333333333338E-005     0.0000000000000000     
  -2.1533333333333336E-005     0.0000000000000000     
  -2.1333333333333335E-005     0.0000000000000000     
  -2.1133333333333337E-005     0.0000000000000000     
  -2.0933333333333335E-005     0.0000000000000000     
  -2.0733333333333334E-005     0.0000000000000000     
  -2.0533333333333336E-005     0.0000000000000000     
  -2.0333333333333337E-005     0.0000000000000000     
  -2.0133333333333336E-005     0.0000000000000000     
  -1.9933333333333334E-005     0.0000000000000000     
  -1.9733333333333336E-005     0.0000000000000000     
  -1.9533333333333335E-005     0.0000000000000000     
  -1.9333333333333333E-005     0.0000000000000000     
  -1.9133333333333335E-005     0.0000000000000000     
  -1.8933333333333337E-005     0.0000000000000000     
  -1.8733333333333336E-005     0.0000000000000000     
  -1.8533333333333334E-005     0.0000000000000000     
  -1.8333333333333336E-005     0.0000000000000000     
  -1.8133333333333335E-005     0.0000000000000000     
  -1.7933333333333337E-005     0.0000000000000000     
  -1.7733333333333335E-005     0.0000000000000000     
  -1.7533333333333337E-005     0.0000000000000000     
  -1.7333333333333336E-005     0.0000000000000000     
  -1.7133333333333334E-005     0.0000000000000000     
  -1.6933333333333336E-005     0.0000000000000000     
  -1.6733333333333335E-005     0.0000000000000000     
  -1.6533333333333337E-005     0.0000000000000000     
  -1.6333333333333335E-005     0.0000000000000000     
  -1.6133333333333337E-005     0.0000000000000000     
  -1.5933333333333336E-005     0.0000000000000000     
  -1.5733333333333334E-005     0.0000000000000000     
  -1.5533333333333336E-005     0.0000000000000000     
  -1.5333333333333334E-005     0.0000000000000000     
  -1.5133333333333336E-005     0.0000000000000000     
  -1.4933333333333335E-005     0.0000000000000000     
  -1.4733333333333337E-005     0.0000000000000000     
  -1.4533333333333335E-005     0.0000000000000000     
  -1.4333333333333337E-005     0.0000000000000000     
  -1.4133333333333336E-005     0.0000000000000000     
  -1.3933333333333334E-005     0.0000000000000000     
  -1.3733333333333336E-005     0.0000000000000000     
  -1.3533333333333335E-005     0.0000000000000000     
  -1.3333333333333337E-005     0.0000000000000000     
  -1.3133333333333335E-005     0.0000000000000000     
  -1.2933333333333337E-005     0.0000000000000000     
  -1.2733333333333336E-005     0.0000000000000000     
  -1.2533333333333338E-005     0.0000000000000000     
  -1.2333333333333336E-005     0.0000000000000000     
  -1.2133333333333335E-005     0.0000000000000000     
  -1.1933333333333337E-005     0.0000000000000000     
  -1.1733333333333335E-005     0.0000000000000000     
  -1.1533333333333337E-005     0.0000000000000000     
  -1.1333333333333336E-005     0.0000000000000000     
  -1.1133333333333337E-005     0.0000000000000000     
  -1.0933333333333336E-005     0.0000000000000000     
  -1.0733333333333334E-005     0.0000000000000000     
  -1.0533333333333336E-005     0.0000000000000000     
  -1.0333333333333335E-005     0.0000000000000000     
  -1.0133333333333337E-005     0.0000000000000000     
  -9.9333333333333354E-006     0.0000000000000000     
  -9.7333333333333373E-006     0.0000000000000000     
  -9.5333333333333358E-006     0.0000000000000000     
  -9.3333333333333343E-006     0.0000000000000000     
  -9.1333333333333362E-006     0.0000000000000000     
  -8.9333333333333348E-006     0.0000000000000000     
  -8.7333333333333367E-006     0.0000000000000000     
  -8.5333333333333352E-006     0.0000000000000000     
  -8.3333333333333371E-006     0.0000000000000000     
  -8.1333333333333356E-006     0.0000000000000000     
  -7.9333333333333376E-006     0.0000000000000000     
  -7.7333333333333361E-006     0.0000000000000000     
  -7.5333333333333346E-006     0.0000000000000000     
  -7.3333333333333365E-006     0.0000000000000000     
  -7.1333333333333351E-006     0.0000000000000000     
  -6.9333333333333370E-006     0.0000000000000000     
  -6.7333333333333355E-006     0.0000000000000000     
  -6.5333333333333374E-006     0.0000000000000000     
  -6.3333333333333359E-006     0.0000000000000000     
  -6.1333333333333379E-006     0.0000000000000000     
  -5.9333333333333364E-006     0.0000000000000000     
  -5.7333333333333349E-006     0.0000000000000000     
  -5.5333333333333368E-006     0.0000000000000000     
  -5.3333333333333354E-006     0.0000000000000000     
  -5.1333333333333373E-006     0.0000000000000000     
  -4.9333333333333358E-006     0.0000000000000000     
  -4.7333333333333377E-006     0.0000000000000000     
  -4.5333333333333362E-006     0.0000000000000000     
  -4.3333333333333348E-006     0.0000000000000000     
  -4.1333333333333367E-006     0.0000000000000000     
  -3.9333333333333352E-006     0.0000000000000000     
  -3.7333333333333371E-006     0.0000000000000000     
  -3.5333333333333356E-006     0.0000000000000000     
  -3.3333333333333376E-006     0.0000000000000000     
  -3.1333333333333361E-006     0.0000000000000000     
  -2.9333333333333346E-006     0.0000000000000000     
  -2.7333333333333365E-006     0.0000000000000000     
  -2.5333333333333384E-006     0.0000000000000000     
  -2.3333333333333336E-006     0.0000000000000000     
  -2.1333333333333355E-006     0.0000000000000000     
  -1.9333333333333374E-006     0.0000000000000000     
  -1.7333333333333393E-006     0.0000000000000000     
  -1.5333333333333345E-006     0.0000000000000000     
  -1.3333333333333364E-006     0.0000000000000000     
  -1.1333333333333383E-006     0.0000000000000000     
  -9.3333333333333343E-007     0.0000000000000000     
  -7.3333333333333535E-007     0.0000000000000000     
  -5.3333333333333726E-007     0.0000000000000000     
  -3.3333333333333918E-007     0.0000000000000000     
  -1.3333333333333432E-007     0.0000000000000000     
   6.6666666666663770E-008     0.0000000000000000     
   2.6666666666666185E-007     0.0000000000000000     
   4.6666666666666672E-007     0.0000000000000000     
   6.6666666666666480E-007     0.0000000000000000     
   8.6666666666666289E-007     0.0000000000000000     
   1.0666666666666610E-006     0.0000000000000000     
   1.2666666666666658E-006     0.0000000000000000     
   1.4666666666666639E-006     0.0000000000000000     
   1.6666666666666620E-006     0.0000000000000000     
   1.8666666666666669E-006     0.0000000000000000     
   2.0666666666666649E-006     0.0000000000000000     
   2.2666666666666630E-006     0.0000000000000000     
   2.4666666666666611E-006     0.0000000000000000     
   2.6666666666666660E-006     0.0000000000000000     
   2.8666666666666641E-006     0.0000000000000000     
   3.0666666666666622E-006     0.0000000000000000     
   3.2666666666666602E-006     0.0000000000000000     
   3.4666666666666651E-006     0.0000000000000000     
   3.6666666666666632E-006     0.0000000000000000     
   3.8666666666666613E-006     0.0000000000000000     
   4.0666666666666661E-006     0.0000000000000000     
   4.2666666666666642E-006     0.0000000000000000     
   4.4666666666666623E-006     0.0000000000000000     
   4.6666666666666604E-006     0.0000000000000000     
   4.8666666666666652E-006     0.0000000000000000     
   5.0666666666666633E-006     0.0000000000000000     
   5.2666666666666614E-006     0.0000000000000000     
   5.4666666666666663E-006     0.0000000000000000     
   5.6666666666666644E-006     0.0000000000000000     
   5.8666666666666624E-006     0.0000000000000000     
   6.0666666666666605E-006     0.0000000000000000     
   6.2666666666666654E-006     0.0000000000000000     
   6.4666666666666635E-006     0.0000000000000000     
   6.6666666666666616E-006     0.0000000000000000     
   6.8666666666666664E-006     0.0000000000000000     
   7.0666666666666645E-006     0.0000000000000000     
   7.2666666666666626E-006     0.0000000000000000     
   7.4666666666666607E-006     0.0000000000000000     
   7.6666666666666655E-006     0.0000000000000000     
   7.8666666666666636E-006     0.0000000000000000     
   8.0666666666666617E-006     0.0000000000000000     
   8.2666666666666598E-006     0.0000000000000000     
   8.4666666666666647E-006     0.0000000000000000     
   8.6666666666666627E-006     0.0000000000000000     
   8.8666666666666608E-006     0.0000000000000000     
   9.0666666666666657E-006     0.0000000000000000     
   9.2666666666666638E-006     0.0000000000000000     
   9.4666666666666619E-006     0.0000000000000000     
   9.6666666666666599E-006     0.0000000000000000     
   9.8666666666666648E-006     0.0000000000000000     
   1.0066666666666663E-005     0.0000000000000000     
   1.0266666666666661E-005     0.0000000000000000     
   1.0466666666666666E-005     0.0000000000000000     
   1.0666666666666664E-005     0.0000000000000000     
   1.0866666666666662E-005     0.0000000000000000     
   1.1066666666666660E-005    -6.3795599085798253E-037
   1.1266666666666665E-005    -1.2330933228998948E-036
   1.1466666666666663E-005    -1.2330933228998948E-036
   1.1666666666666661E-005    -1.2330933228998948E-036
   1.1866666666666666E-005     0.0000000000000000     
   1.2066666666666664E-005     1.9220591786692504E-036
   1.2266666666666662E-005     4.7408679422500250E-036
   1.2466666666666660E-005     8.0812574824573312E-036
   1.2666666666666665E-005     1.4075295027391368E-035
   1.2866666666666663E-005     1.9881320200421516E-035
   1.3066666666666661E-005     2.8663189965603348E-035
   1.3266666666666666E-005     4.3274596225761401E-035
   1.3466666666666664E-005     5.4987697186047292E-035
   1.3666666666666662E-005     7.7268727688684452E-035
   1.3866666666666660E-005     8.8560619406123205E-035
   1.4066666666666665E-005     7.8850662986627969E-035
   1.4266666666666663E-005     4.1782889302793111E-035
   1.4466666666666661E-005    -5.5910827593427419E-035
   1.4666666666666666E-005    -1.9300593274719799E-034
   1.4866666666666664E-005    -3.6445281696396040E-034
   1.5066666666666662E-005    -5.2572267516748654E-034
   1.5266666666666661E-005    -6.3527479973778895E-034
   1.5466666666666665E-005    -6.2825852191357034E-034
   1.5666666666666663E-005    -4.7246543423554428E-034
   1.5866666666666662E-005    -8.4273635130534998E-035
   1.6066666666666660E-005     5.2768221506675768E-034
   1.6266666666666665E-005     1.3141271954414756E-033
   1.6466666666666663E-005     2.1527118246776410E-033
   1.6666666666666661E-005     2.8446096362815626E-033
   1.6866666666666666E-005     3.1289598830355508E-033
   1.7066666666666664E-005     2.7237067362216287E-033
   1.7266666666666662E-005     1.3633468887848317E-033
   1.7466666666666660E-005    -1.0452612398591901E-033
   1.7666666666666665E-005    -4.3933462186929736E-033
   1.7866666666666663E-005    -8.2656134240816895E-033
   1.8066666666666661E-005    -1.1955769371221170E-032
   1.8266666666666666E-005    -1.4374498873567757E-032
   1.8466666666666664E-005    -1.4323223809984888E-032
   1.8666666666666662E-005    -1.0656003961681858E-032
   1.8866666666666660E-005    -2.5554573114334731E-033
   1.9066666666666665E-005     1.0049384224468263E-032
   1.9266666666666663E-005     2.6136252902185708E-032
   1.9466666666666661E-005     4.3403077666470781E-032
   1.9666666666666666E-005     5.8172623457151446E-032
   1.9866666666666664E-005     6.5774181020670424E-032
   2.0066666666666662E-005     6.1132594639654769E-032
   2.0266666666666660E-005     3.9816735502924171E-032
   2.0466666666666665E-005    -6.1622866884759852E-034
   2.0666666666666663E-005    -5.9181068305778378E-032
   2.0866666666666661E-005    -1.3026674406052632E-031
   2.1066666666666659E-005    -2.0291703218357751E-031
   2.1266666666666664E-005    -2.6104581557891503E-031
   2.1466666666666662E-005    -2.8492774655739604E-031
   2.1666666666666660E-005    -2.5411157440341436E-031
   2.1866666666666665E-005    -1.5172397108662269E-031
   2.2066666666666663E-005     3.0247088890125715E-032
   2.2266666666666661E-005     2.8535842417765031E-031
   2.2466666666666659E-005     5.8801542322200140E-031
   2.2666666666666664E-005     8.9096669552213734E-031
   2.2866666666666662E-005     1.1265089621557250E-030
   2.3066666666666660E-005     1.2126699709241048E-030
   2.3266666666666665E-005     1.0651671530315109E-030
   2.3466666666666663E-005     6.1501497680784626E-031
   2.3666666666666661E-005    -1.6959879679398357E-031
   2.3866666666666660E-005    -1.2600814196746903E-030
   2.4066666666666664E-005    -2.5473158184578947E-030
   2.4266666666666662E-005    -3.8304568637928918E-030
   2.4466666666666661E-005    -4.8210897756602321E-030
   2.4666666666666665E-005    -5.1687261491532044E-030
   2.4866666666666663E-005    -4.5115969713373182E-030
   2.5066666666666662E-005    -2.5528419584604324E-030
   2.5266666666666660E-005     8.4350926143254769E-031
   2.5466666666666665E-005     5.5494783614184460E-030
   2.5666666666666663E-005     1.1083301018874900E-029
   2.5866666666666661E-005     1.6559521820033717E-029
   2.6066666666666666E-005     2.0708990547362933E-029
   2.6266666666666664E-005     2.1996405502078424E-029
   2.6466666666666662E-005     1.8853099753742324E-029
   2.6666666666666660E-005     1.0023885324603093E-029
   2.6866666666666665E-005    -5.0008768406015496E-030
   2.7066666666666663E-005    -2.5530259750480875E-029
   2.7266666666666661E-005    -4.9291679236194674E-029
   2.7466666666666666E-005    -7.2247428059391607E-029
   2.7666666666666664E-005    -8.8742518494988957E-029
   2.7866666666666662E-005    -9.2099396332462680E-029
   2.8066666666666667E-005    -7.5720957066184435E-029
   2.8266666666666658E-005    -3.4669540625186221E-029
   2.8466666666666663E-005     3.2438558423935738E-029
   2.8666666666666668E-005     1.2153151190936810E-028
   2.8866666666666659E-005     2.2162034574516065E-028
   2.9066666666666664E-005     3.1431908545778556E-028
   2.9266666666666669E-005     3.7489249517780502E-028
   2.9466666666666660E-005     3.7525546074994910E-028
   2.9666666666666665E-005     2.8906816980867590E-028
   2.9866666666666656E-005     9.8639102107217207E-029
   3.0066666666666661E-005    -1.9720524758072859E-028
   3.0266666666666666E-005    -5.7571356789556127E-028
   3.0466666666666657E-005    -9.8519848525060749E-028
   3.0666666666666662E-005    -1.3446113907227730E-027
   3.0866666666666667E-005    -1.5497495076332462E-027
   3.1066666666666658E-005    -1.4874511628326606E-027
   3.1266666666666663E-005    -1.0578486072057772E-027
   3.1466666666666668E-005    -2.0290731225588943E-028
   3.1666666666666659E-005     1.0627045506710580E-027
   3.1866666666666664E-005     2.6245338761014898E-027
   3.2066666666666656E-005     4.2527995994110176E-027
   3.2266666666666660E-005     5.6066590168372465E-027
   3.2466666666666665E-005     6.2653902283198570E-027
   3.2666666666666657E-005     5.7903619186526786E-027
   3.2866666666666661E-005     3.8162475181728073E-027
   3.3066666666666666E-005     1.6276868128423693E-028
   3.3266666666666658E-005    -5.0498094994127207E-027
   3.3466666666666662E-005    -1.1305650196696328E-026
   3.3666666666666667E-005    -1.7647950896601334E-026
   3.3866666666666659E-005    -2.2712767627326709E-026
   3.4066666666666664E-005    -2.4865692297191291E-026
   3.4266666666666668E-005    -2.2451645423234821E-026
   3.4466666666666660E-005    -1.4147300510997407E-026
   3.4666666666666665E-005     6.2051758360155956E-028
   3.4866666666666656E-005     2.1255419519896798E-026
   3.5066666666666661E-005     4.5660720574998254E-026
   3.5266666666666666E-005     7.0102031897827884E-026
   3.5466666666666657E-005     8.9365978225470060E-026
   3.5666666666666662E-005     9.7293752989029236E-026
   3.5866666666666667E-005     8.7718386758133578E-026
   3.6066666666666658E-005     5.5761058330878940E-026
   3.6266666666666663E-005    -6.4995219686886162E-028
   3.6466666666666668E-005    -7.9270499976025051E-026
   3.6666666666666659E-005    -1.7235852733052997E-025
   3.6866666666666664E-005    -2.6618393009023859E-025
   3.7066666666666669E-005    -3.4158828439953368E-025
   3.7266666666666660E-005    -3.7586823503591275E-025
   3.7466666666666665E-005    -3.4608784839530118E-025
   3.7666666666666656E-005    -2.3367433123659520E-025
   3.7866666666666661E-005    -2.9839862438782158E-026
   3.8066666666666666E-005     2.5896067590777582E-025
   3.8266666666666657E-005     6.0661959009963122E-025
   3.8466666666666662E-005     9.6528284274838356E-025
   3.8666666666666667E-005     1.2668407995948329E-024
   3.8866666666666658E-005     1.4290190646175341E-024
   3.9066666666666663E-005     1.3665432530762930E-024
   3.9266666666666668E-005     1.0070175289391012E-024
   3.9466666666666659E-005     3.1009779522782269E-025
   3.9666666666666664E-005    -7.1262716227748997E-025
   3.9866666666666655E-005    -1.9807108122284986E-024
   4.0066666666666660E-005    -3.3352948353740279E-024
   4.0266666666666665E-005    -4.5414974749063320E-024
   4.0466666666666656E-005    -5.3066266830851275E-024
   4.0666666666666661E-005    -5.3164152636275625E-024
   4.0866666666666666E-005    -4.2887267193508893E-024
   4.1066666666666657E-005    -2.0405664222730481E-024
   4.1266666666666662E-005     1.4398913428285164E-024
   4.1466666666666667E-005     5.9285251777161122E-024
   4.1666666666666658E-005     1.0923028788458779E-023
   4.1866666666666663E-005     1.5639607630391672E-023
   4.2066666666666668E-005     1.9063304979817935E-023
   4.2266666666666660E-005     2.0061433328254166E-023
   4.2466666666666664E-005     1.7560696927049246E-023
   4.2666666666666656E-005     1.0776306970974912E-023
   4.2866666666666661E-005    -5.3287667546434473E-025
   4.3066666666666665E-005    -1.5823497418285932E-023
   4.3266666666666657E-005    -3.3592975850232781E-023
   4.3466666666666662E-005    -5.1328149876855189E-023
   4.3666666666666666E-005    -6.5630728203040442E-023
   4.3866666666666658E-005    -7.2557419200085784E-023
   4.4066666666666663E-005    -6.8184056383074637E-023
   4.4266666666666667E-005    -4.9363040563964473E-023
   4.4466666666666659E-005    -1.4595261499240352E-023
   4.4666666666666664E-005     3.5111656155084443E-023
   4.4866666666666655E-005     9.5568340344088896E-023
   4.5066666666666660E-005     1.5910401806593062E-022
   4.5266666666666665E-005     2.1482780188087315E-022
   4.5466666666666656E-005     2.4959124852150580E-022
   4.5666666666666661E-005     2.4970618239995288E-022
   4.5866666666666666E-005     2.0334448621220296E-022
   4.6066666666666657E-005     1.0339250261578608E-022
   4.6266666666666662E-005    -4.9629729192470730E-023
   4.6466666666666667E-005    -2.4511569350738870E-022
   4.6666666666666658E-005    -4.6100364871423199E-022
   4.6866666666666663E-005    -6.6410718525154425E-022
   4.7066666666666668E-005    -8.1263785448019521E-022
   4.7266666666666659E-005    -8.6116277135312943E-022
   4.7466666666666664E-005    -7.6785554617711914E-022
   4.7666666666666655E-005    -5.0342442301143844E-022
   4.7866666666666660E-005    -6.0591042978381695E-023
   4.8066666666666665E-005     5.3747357819049881E-022
   4.8266666666666656E-005     1.2316562810910986E-021
   4.8466666666666661E-005     1.9263049294185327E-021
   4.8666666666666666E-005     2.4951838554176724E-021
   4.8866666666666657E-005     2.7949423156208122E-021
   4.9066666666666662E-005     2.6859479413230962E-021
   4.9266666666666667E-005     2.0589529129951790E-021
   4.9466666666666658E-005     8.6448007660999035E-022
   4.9666666666666663E-005    -8.5961847200151981E-022
   4.9866666666666655E-005    -2.9680510633786656E-021
   5.0066666666666659E-005    -5.2013787385994946E-021
   5.0266666666666664E-005    -7.1980085603692396E-021
   5.0466666666666656E-005    -8.5283783260573326E-021
   5.0666666666666660E-005    -8.7517817149320058E-021
   5.0866666666666665E-005    -7.4923103750276571E-021
   5.1066666666666657E-005    -4.5258375383304128E-021
   5.1266666666666661E-005     1.3443662786048270E-022
   5.1466666666666666E-005     6.1697661095193565E-021
   5.1666666666666658E-005     1.2922398898443095E-020
   5.1866666666666662E-005     1.9413074331025730E-020
   5.2066666666666667E-005     2.4421202191223957E-020
   5.2266666666666659E-005     2.6631482102341065E-020
   5.2466666666666664E-005     2.4839846054055287E-020
   5.2666666666666655E-005     1.8198860433503116E-020
   5.2866666666666660E-005     6.4699971289591599E-021
   5.3066666666666665E-005    -9.7603531807363957E-021
   5.3266666666666656E-005    -2.8949854486238394E-020
   5.3466666666666661E-005    -4.8601436330253560E-020
   5.3666666666666666E-005    -6.5433514895244911E-020
   5.3866666666666657E-005    -7.5736062349289941E-020
   5.4066666666666662E-005    -7.5900949172175023E-020
   5.4266666666666667E-005    -6.3080664266323179E-020
   5.4466666666666658E-005    -3.5894329765479430E-020
   5.4666666666666663E-005     4.9305816972552975E-021
   5.4866666666666668E-005     5.6111137692984004E-020
   5.5066666666666659E-005     1.1168746434586126E-019
   5.5266666666666664E-005     1.6333527762517691E-019
   5.5466666666666655E-005     2.0117322010504027E-019
   5.5666666666666660E-005     2.1505500391899639E-019
   5.5866666666666665E-005     1.9624808334032297E-019
   5.6066666666666656E-005     1.3930785217961941E-019
   5.6266666666666661E-005     4.3872073183247105E-020
   5.6466666666666666E-005    -8.3956389406385863E-020
   5.6666666666666657E-005    -2.3098418899599197E-019
   5.6866666666666662E-005    -3.7736070017548621E-019
   5.7066666666666667E-005    -4.9826377080110368E-019
   5.7266666666666658E-005    -5.6686382355408108E-019
   5.7466666666666663E-005    -5.5837607158988617E-019
   5.7666666666666654E-005    -4.5477661125250649E-019
   5.7866666666666659E-005    -2.4953903920768692E-019
   5.8066666666666664E-005     4.8415291611860719E-020
   5.8266666666666655E-005     4.1241837229428519E-019
   5.8466666666666660E-005     7.9820240774376373E-019
   5.8666666666666665E-005     1.1470573524867245E-018
   5.8866666666666656E-005     1.3921865367525264E-018
   5.9066666666666661E-005     1.4679442867435017E-018
   5.9266666666666666E-005     1.3210795063580539E-018
   5.9466666666666657E-005     9.2255670852949972E-019
   5.9666666666666662E-005     2.7810168915671954E-019
   5.9866666666666667E-005    -5.6459822755508662E-019
   6.0066666666666659E-005    -1.5140207284045430E-018
   6.0266666666666663E-005    -2.4397958932999100E-018
   6.0466666666666655E-005    -3.1852893184360291E-018
   6.0666666666666660E-005    -3.5874016665327571E-018
   6.0866666666666664E-005    -3.5019179268993833E-018
   6.1066666666666656E-005    -2.8314464745993736E-018
   6.1266666666666661E-005    -1.5518893670399503E-018
   6.1466666666666665E-005     2.6724913121881210E-019
   6.1666666666666657E-005     2.4534133541340642E-018
   6.1866666666666662E-005     4.7363365122148238E-018
   6.2066666666666666E-005     6.7704877894072512E-018
   6.2266666666666658E-005     8.1746487995022483E-018
   6.2466666666666663E-005     8.5858071947778563E-018
   6.2666666666666668E-005     7.7216383739539074E-018
   6.2866666666666659E-005     5.4432330695837593E-018
   6.3066666666666664E-005     1.8079515008594421E-018
   6.3266666666666655E-005    -2.8982084286336816E-018
   6.3466666666666660E-005    -8.1581862509512180E-018
   6.3666666666666665E-005    -1.3257944151700908E-017
   6.3866666666666656E-005    -1.7359056825082679E-017
   6.4066666666666661E-005    -1.9606021821550299E-017
   6.4266666666666666E-005    -1.9258169212914599E-017
   6.4466666666666657E-005    -1.5830096180839662E-017
   6.4666666666666662E-005    -9.2200760535937170E-018
   6.4866666666666667E-005     1.9635318697690549E-019
   6.5066666666666658E-005     1.1529180512037546E-017
   6.5266666666666663E-005     2.3410064985642838E-017
   6.5466666666666654E-005     3.4110384054122648E-017
   6.5666666666666659E-005     4.1738574179915215E-017
   6.5866666666666664E-005     4.4501251546723921E-017
   6.6066666666666655E-005     4.0999607416607292E-017
   6.6266666666666660E-005     3.0521856181185900E-017
   6.6466666666666665E-005     1.3285766371604129E-017
   6.6666666666666656E-005    -9.4154693491685430E-018
   6.6866666666666661E-005    -3.5204519011403689E-017
   6.7066666666666666E-005    -6.0775030864524776E-017
   6.7266666666666657E-005    -8.2217259642683563E-017
   6.7466666666666662E-005    -9.5495870901989108E-017
   6.7666666666666667E-005    -9.7035121673052284E-017
   6.7866666666666658E-005    -8.4342855736593727E-017
   6.8066666666666663E-005    -5.6585936779650028E-017
   6.8266666666666655E-005    -1.5022410560963285E-017
   6.8466666666666659E-005     3.6799822849495909E-017
   6.8666666666666664E-005     9.3148868336600550E-017
   6.8866666666666656E-005     1.4655730659841388E-016
   6.9066666666666660E-005     1.8860709259455115E-016
   6.9266666666666665E-005     2.1099404104158429E-016
   6.9466666666666657E-005     2.0676484524061298E-016
   6.9666666666666661E-005     1.7157488791671267E-016
   6.9866666666666666E-005     1.0478843113829962E-016
   7.0066666666666658E-005     1.0233497208243671E-017
   7.0266666666666662E-005    -1.0355581952903230E-016
   7.0466666666666654E-005    -2.2373213278397829E-016
   7.0666666666666659E-005    -3.3421418704482331E-016
   7.0866666666666664E-005    -4.1741473944270581E-016
   7.1066666666666655E-005    -4.5648087835191940E-016
   7.1266666666666660E-005    -4.3781521033997041E-016
   7.1466666666666665E-005    -3.5356963104341292E-016
   7.1666666666666656E-005    -2.0375631656086371E-016
   7.1866666666666661E-005     2.3833155874844830E-018
   7.2066666666666666E-005     2.4606667106740008E-016
   7.2266666666666657E-005     4.9993409206253864E-016
   7.2466666666666662E-005     7.3036760541805813E-016
   7.2666666666666667E-005     9.0106994351998046E-016
   7.2866666666666658E-005     9.7762012261161423E-016
   7.3066666666666663E-005     9.3254420553229257E-016
   7.3266666666666654E-005     7.5029357904618271E-016
   7.3466666666666659E-005     4.3143813750810920E-016
   7.3666666666666664E-005    -4.6257916815629309E-018
   7.3866666666666655E-005    -5.1906634287952674E-016
   7.4066666666666660E-005    -1.0555381540339453E-015
   7.4266666666666665E-005    -1.5447984662907773E-015
   7.4466666666666656E-005    -1.9118499237089429E-015
   7.4666666666666661E-005    -2.0850745141695517E-015
   7.4866666666666666E-005    -2.0064749388620361E-015
   7.5066666666666657E-005    -1.6418398546841502E-015
   7.5266666666666662E-005    -9.8947371343372772E-016
   7.5466666666666653E-005    -8.6077486568341929E-017