  -3.3333333333333335E-005     0.0000000000000000     
  -3.3133333333333337E-005     0.0000000000000000     
  -3.2933333333333332E-005     0.0000000000000000     
  -3.2733333333333334E-005     0.0000000000000000     
  -3.2533333333333336E-005     0.0000000000000000     
  -3.2333333333333338E-005     0.0000000000000000     
  -3.2133333333333333E-005     0.0000000000000000     
  -3.1933333333333335E-005     0.0000000000000000     
  -3.1733333333333337E-005     0.0000000000000000     
  -3.1533333333333332E-005     0.0000000000000000     
  -3.1333333333333334E-005     0.0000000000000000     
  -3.1133333333333336E-005     0.0000000000000000     
  -3.0933333333333338E-005     0.0000000000000000     
  -3.0733333333333333E-005     0.0000000000000000     
  -3.0533333333333335E-005     0.0000000000000000     
  -3.0333333333333337E-005     0.0000000000000000     
  -3.0133333333333335E-005     0.0000000000000000     
  -2.9933333333333334E-005     0.0000000000000000     
  -2.9733333333333336E-005     0.0000000000000000     
  -2.9533333333333334E-005     0.0000000000000000     
  -2.9333333333333336E-005     0.0000000000000000     
  -2.9133333333333334E-005     0.0000000000000000     
  -2.8933333333333336E-005     0.0000000000000000     
  -2.8733333333333335E-005     0.0000000000000000     
  -2.8533333333333333E-005     0.0000000000000000     
  -2.8333333333333335E-005     0.0000000000000000     
  -2.8133333333333337E-005     0.0000000000000000     
  -2.7933333333333336E-005     0.0000000000000000     
  -2.7733333333333334E-005     0.0000000000000000     
  -2.7533333333333336E-005     0.0000000000000000     
  -2.7333333333333335E-005     0.0000000000000000     
  -2.7133333333333333E-005     0.0000000000000000     
  -2.6933333333333335E-005     0.0000000000000000     
  -2.6733333333333337E-005     0.0000000000000000     
  -2.6533333333333336E-005     0.0000000000000000     
  -2.6333333333333334E-005     0.0000000000000000     
  -2.6133333333333336E-005     0.0000000000000000     
  -2.5933333333333335E-005     0.0000000000000000     
  -2.5733333333333333E-005     0.0000000000000000     
  -2.5533333333333335E-005     0.0000000000000000     
  -2.5333333333333337E-005     0.0000000000000000     
  -2.5133333333333336E-005     0.0000000000000000     
  -2.4933333333333334E-005     0.0000000000000000     
  -2.4733333333333336E-005     0.0000000000000000     
  -2.4533333333333334E-005     0.0000000000000000     
  -2.4333333333333333E-005     0.0000000000000000     
  -2.4133333333333335E-005     0.0000000000000000     
  -2.3933333333333337E-005     0.0000000000000000     
  -2.3733333333333335E-005     0.0000000000000000     
  -2.3533333333333334E-005     0.0000000000000000     
  -2.3333333333333336E-005     0.0000000000000000     
  -2.3133333333333338E-005     0.0000000000000000     
  -2.2933333333333336E-005     0.0000000000000000     
  -2.2733333333333335E-005     0.0000000000000000     
  -2.2533333333333337E-005     0.0000000000000000     
  -2.2333333333333335E-005     0.0000000000000000     
  -2.2133333333333334E-005     0.0000000000000000     
  -2.1933333333333336E-005     0.0000000000000000     
  -2.1733333333333338E-005     0.0000000000000000     
  -2.1533333333333336E-005     0.0000000000000000     
  -2.1333333333333335E-005     0.0000000000000000     
  -2.1133333333333337E-005     0.0000000000000000     
  -2.0933333333333335E-005     0.0000000000000000     
  -2.0733333333333334E-005     0.0000000000000000     
  -2.0533333333333336E-005     0.0000000000000000     
  -2.0333333333333337E-005     0.0000000000000000     
  -2.0133333333333336E-005     0.0000000000000000     
  -1.9933333333333334E-005     0.0000000000000000     
  -1.9733333333333336E-005     0.0000000000000000     
  -1.9533333333333335E-005     0.0000000000000000     
  -1.9333333333333333E-005     0.0000000000000000     
  -1.9133333333333335E-005     0.0000000000000000     
  -1.8933333333333337E-005     0.0000000000000000     
  -1.8733333333333336E-005     0.0000000000000000     
  -1.8533333333333334E-005     0.0000000000000000     
  -1.8333333333333336E-005     0.0000000000000000     
  -1.8133333333333335E-005     0.0000000000000000     
  -1.7933333333333337E-005     0.0000000000000000     
  -1.7733333333333335E-005     0.0000000000000000     
  -1.7533333333333337E-005     0.0000000000000000     
  -1.7333333333333336E-005     0.0000000000000000     
  -1.7133333333333334E-005     0.0000000000000000     
  -1.6933333333333336E-005     0.0000000000000000     
  -1.6733333333333335E-005     0.0000000000000000     
  -1.6533333333333337E-005     0.0000000000000000     
  -1.6333333333333335E-005     0.0000000000000000     
  -1.6133333333333337E-005     0.0000000000000000     
  -1.5933333333333336E-005     0.0000000000000000     
  -1.5733333333333334E-005     0.0000000000000000     
  -1.5533333333333336E-005     0.0000000000000000     
  -1.5333333333333334E-005     0.0000000000000000     
  -1.5133333333333336E-005     0.0000000000000000     
  -1.4933333333333335E-005     0.0000000000000000     
  -1.4733333333333337E-005     0.0000000000000000     
  -1.4533333333333335E-005     0.0000000000000000     
  -1.4333333333333337E-005     0.0000000000000000     
  -1.4133333333333336E-005     0.0000000000000000     
  -1.3933333333333334E-005     0.0000000000000000     
  -1.3733333333333336E-005     0.0000000000000000     
  -1.3533333333333335E-005     0.0000000000000000     
  -1.3333333333333337E-005     0.0000000000000000     
  -1.3133333333333335E-005     0.0000000000000000     
  -1.2933333333333337E-005     0.0000000000000000     
  -1.2733333333333336E-005     0.0000000000000000     
  -1.2533333333333338E-005     0.0000000000000000     
  -1.2333333333333336E-005     0.0000000000000000     
  -1.2133333333333335E-005     0.0000000000000000     
  -1.1933333333333337E-005     0.0000000000000000     
  -1.1733333333333335E-005     0.0000000000000000     
  -1.1533333333333337E-005     0.0000000000000000     
  -1.1333333333333336E-005     0.0000000000000000     
  -1.1133333333333337E-005     0.0000000000000000     
  -1.0933333333333336E-005     0.0000000000000000     
  -1.0733333333333334E-005     0.0000000000000000     
  -1.0533333333333336E-005     0.0000000000000000     
  -1.0333333333333335E-005     0.0000000000000000     
  -1.0133333333333337E-005     0.0000000000000000     
  -9.9333333333333354E-006     0.0000000000000000     
  -9.7333333333333373E-006     0.0000000000000000     
  -9.5333333333333358E-006     0.0000000000000000     
  -9.3333333333333343E-006     0.0000000000000000     
  -9.1333333333333362E-006     0.0000000000000000     
  -8.9333333333333348E-006     0.0000000000000000     
  -8.7333333333333367E-006     0.0000000000000000     
  -8.5333333333333352E-006     0.0000000000000000     
  -8.3333333333333371E-006     0.0000000000000000     
  -8.1333333333333356E-006     0.0000000000000000     
  -7.9333333333333376E-006     0.0000000000000000     
  -7.7333333333333361E-006     0.0000000000000000     
  -7.5333333333333346E-006     0.0000000000000000     
  -7.3333333333333365E-006     0.0000000000000000     
  -7.1333333333333351E-006     0.0000000000000000     
  -6.9333333333333370E-006     0.0000000000000000     
  -6.7333333333333355E-006     0.0000000000000000     
  -6.5333333333333374E-006     0.0000000000000000     
  -6.3333333333333359E-006     0.0000000000000000     
  -6.1333333333333379E-006     0.0000000000000000     
  -5.9333333333333364E-006     0.0000000000000000     
  -5.7333333333333349E-006     0.0000000000000000     
  -5.5333333333333368E-006     0.0000000000000000     
  -5.3333333333333354E-006     0.0000000000000000     
  -5.1333333333333373E-006     0.0000000000000000     
  -4.9333333333333358E-006     0.0000000000000000     
  -4.7333333333333377E-006     0.0000000000000000     
  -4.5333333333333362E-006     0.0000000000000000     
  -4.3333333333333348E-006     0.0000000000000000     
  -4.1333333333333367E-006     0.0000000000000000     
  -3.9333333333333352E-006     0.0000000000000000     
  -3.7333333333333371E-006     0.0000000000000000     
  -3.5333333333333356E-006     0.0000000000000000     
  -3.3333333333333376E-006     0.0000000000000000     
  -3.1333333333333361E-006     0.0000000000000000     
  -2.9333333333333346E-006     0.0000000000000000     
  -2.7333333333333365E-006     0.0000000000000000     
  -2.5333333333333384E-006     0.0000000000000000     
  -2.3333333333333336E-006     0.0000000000000000     
  -2.1333333333333355E-006     0.0000000000000000     
  -1.9333333333333374E-006     0.0000000000000000     
  -1.7333333333333393E-006     0.0000000000000000     
  -1.5333333333333345E-006     0.0000000000000000     
  -1.3333333333333364E-006     0.0000000000000000     
  -1.1333333333333383E-006     0.0000000000000000     
  -9.3333333333333343E-007     0.0000000000000000     
  -7.3333333333333535E-007     0.0000000000000000     
  -5.3333333333333726E-007     0.0000000000000000     
  -3.3333333333333918E-007     0.0000000000000000     
  -1.3333333333333432E-007     0.0000000000000000     
   6.6666666666663770E-008     0.0000000000000000     
   2.6666666666666185E-007     0.0000000000000000     
   4.6666666666666672E-007     0.0000000000000000     
   6.6666666666666480E-007     0.0000000000000000     
   8.6666666666666289E-007     0.0000000000000000     
   1.0666666666666610E-006     0.0000000000000000     
   1.2666666666666658E-006     0.0000000000000000     
   1.4666666666666639E-006     0.0000000000000000     
   1.6666666666666620E-006     0.0000000000000000     
   1.8666666666666669E-006     0.0000000000000000     
   2.0666666666666649E-006     0.0000000000000000     
   2.2666666666666630E-006     0.0000000000000000     
   2.4666666666666611E-006     0.0000000000000000     
   2.6666666666666660E-006     0.0000000000000000     
   2.8666666666666641E-006     0.0000000000000000     
   3.0666666666666622E-006     0.0000000000000000     
   3.2666666666666602E-006     0.0000000000000000     
   3.4666666666666651E-006     0.0000000000000000     
   3.6666666666666632E-006     0.0000000000000000     
   3.8666666666666613E-006     0.0000000000000000     
   4.0666666666666661E-006     0.0000000000000000     
   4.2666666666666642E-006     0.0000000000000000     
   4.4666666666666623E-006     0.0000000000000000     
   4.6666666666666604E-006     0.0000000000000000     
   4.8666666666666652E-006     0.0000000000000000     
   5.0666666666666633E-006     0.0000000000000000     
   5.2666666666666614E-006     0.0000000000000000     
   5.4666666666666663E-006     0.0000000000000000     
   5.6666666666666644E-006     0.0000000000000000     
   5.8666666666666624E-006     0.0000000000000000     
   6.0666666666666605E-006     0.0000000000000000     
   6.2666666666666654E-006     0.0000000000000000     
   6.4666666666666635E-006     0.0000000000000000     
   6.6666666666666616E-006     0.0000000000000000     
   6.8666666666666664E-006     0.0000000000000000     
   7.0666666666666645E-006     0.0000000000000000     
   7.2666666666666626E-006     0.0000000000000000     
   7.4666666666666607E-006     0.0000000000000000     
   7.6666666666666655E-006     0.0000000000000000     
   7.8666666666666636E-006     0.0000000000000000     
   8.0666666666666617E-006     0.0000000000000000     
   8.2666666666666598E-006     0.0000000000000000     
   8.4666666666666647E-006     0.0000000000000000     
   8.6666666666666627E-006     0.0000000000000000     
   8.8666666666666608E-006     0.0000000000000000     
   9.0666666666666657E-006     0.0000000000000000     
   9.2666666666666638E-006     0.0000000000000000     
   9.4666666666666619E-006     0.0000000000000000     
   9.6666666666666599E-006     0.0000000000000000     
   9.8666666666666648E-006     0.0000000000000000     
   1.0066666666666663E-005     0.0000000000000000     
   1.0266666666666661E-005     0.0000000000000000     
   1.0466666666666666E-005     0.0000000000000000     
   1.0666666666666664E-005     0.0000000000000000     
   1.0866666666666662E-005     0.0000000000000000     
   1.1066666666666660E-005     1.1524176331871338E-036
   1.1266666666666665E-005     2.2274868197351996E-036
   1.1466666666666663E-005     2.2274868197351996E-036
   1.1666666666666661E-005     2.2274868197351996E-036
   1.1866666666666666E-005     0.0000000000000000     
   1.2066666666666664E-005    -3.4720497145136544E-036
   1.2266666666666662E-005    -8.5640072697025279E-036
   1.2466666666666660E-005    -1.4598160424766891E-035
   1.2666666666666665E-005    -2.5425919849412039E-035
   1.2866666666666663E-005    -3.5914050085320524E-035
   1.3066666666666661E-005    -5.1777811266866594E-035
   1.3266666666666666E-005    -7.8172170861575710E-035
   1.3466666666666664E-005    -9.9330983080599237E-035
   1.3666666666666662E-005    -1.1302155482078111E-034
   1.3866666666666660E-005    -9.6839015412915126E-035
   1.4066666666666665E-005    -3.8614639301683042E-035
   1.4266666666666663E-005     6.2702303602488284E-035
   1.4466666666666661E-005     2.3917836361591375E-034
   1.4666666666666666E-005     4.4027594488846639E-034
   1.4866666666666664E-005     6.2966654374066466E-034
   1.5066666666666662E-005     7.5690315429962296E-034
   1.5266666666666661E-005     7.4396592061386210E-034
   1.5466666666666665E-005     5.1366371024923264E-034
   1.5666666666666663E-005     2.8376247087998450E-035
   1.5866666666666662E-005    -7.4191454521843297E-034
   1.6066666666666660E-005    -1.7221728760225699E-033
   1.6266666666666665E-005    -2.7539305326911928E-033
   1.6466666666666663E-005    -3.5809018287542111E-033
   1.6666666666666661E-005    -3.8690974114033267E-033
   1.6866666666666666E-005    -3.2574979862460602E-033
   1.7066666666666664E-005    -1.4526613169022938E-033
   1.7266666666666662E-005     1.7006385541994749E-033
   1.7466666666666660E-005     6.0381875458077685E-033
   1.7666666666666665E-005     1.1014338720850647E-032
   1.7866666666666663E-005     1.5642141695918942E-032
   1.8066666666666661E-005     1.8537053674208067E-032
   1.8266666666666666E-005     1.8080600401576142E-032
   1.8466666666666664E-005     1.2726817258227787E-032
   1.8666666666666662E-005     1.4374261754316677E-033
   1.8866666666666660E-005    -1.5818846414838364E-032
   1.9066666666666665E-005    -3.7578941029792028E-032
   1.9266666666666663E-005    -6.0552376505560642E-032
   1.9466666666666661E-005    -7.9591447082806445E-032
   1.9666666666666666E-005    -8.8102008550344544E-032
   1.9866666666666664E-005    -7.9000790558877016E-032
   2.0066666666666662E-005    -4.6215177537112415E-032
   2.0266666666666660E-005     1.3387477409484561E-032
   2.0466666666666665E-005     9.7918103431264646E-032
   2.0666666666666663E-005     1.9865918005591603E-031
   2.0866666666666661E-005     2.9907728960767900E-031
   2.1066666666666659E-005     3.7523197324434509E-031
   2.1266666666666664E-005     3.9808576984382289E-031
   2.1466666666666662E-005     3.3799576816368644E-031
   2.1666666666666660E-005     1.7128885204193481E-031
   2.1866666666666665E-005    -1.1168276612120137E-031
   2.2066666666666663E-005    -4.9818889392933951E-031
   2.2266666666666661E-005    -9.4620797108422799E-031
   2.2466666666666659E-005    -1.3811004438828061E-030
   2.2666666666666664E-005    -1.6981212080679340E-030
   2.2866666666666662E-005    -1.7727005882151761E-030
   2.3066666666666660E-005    -1.4795490361596533E-030
   2.3266666666666665E-005    -7.2018918352281023E-031
   2.3466666666666663E-005     5.4346747871001901E-031
   2.3666666666666661E-005     2.2541921021085994E-030
   2.3866666666666660E-005     4.2301587973097732E-030
   2.4066666666666664E-005     6.1501303959315610E-030
   2.4266666666666662E-005     7.5626491707045010E-030
   2.4466666666666661E-005     7.9277919464653995E-030
   2.4666666666666665E-005     6.6967676186684594E-030
   2.4866666666666663E-005     3.4287804759248211E-030
   2.5066666666666662E-005    -2.0638071562584604E-030
   2.5266666666666660E-005    -9.5612235374979774E-030
   2.5466666666666665E-005    -1.8302819438913357E-029
   2.5666666666666663E-005    -2.6913242960155506E-029
   2.5866666666666661E-005    -3.3431537810606415E-029
   2.6066666666666666E-005    -3.5483218943299985E-029
   2.6266666666666664E-005    -3.0621699308977120E-029
   2.6466666666666662E-005    -1.6839321825133956E-029
   2.6666666666666660E-005     6.7898246415360511E-030
   2.6866666666666665E-005     3.9420286185785902E-029
   2.7066666666666663E-005     7.7833034158227773E-029
   2.7266666666666661E-005     1.1609615242031845E-028
   2.7466666666666666E-005     1.4568314285740799E-028
   2.7666666666666664E-005     1.5622724819106353E-028
   2.7866666666666662E-005     1.3702465534699122E-028
   2.8066666666666667E-005     7.9278697359795595E-029
   2.8266666666666658E-005    -2.1096295059179207E-029
   2.8466666666666663E-005    -1.6050106729359109E-028
   2.8666666666666668E-005    -3.2510833759923730E-028
   2.8866666666666659E-005    -4.8951501026411342E-028
   2.9066666666666664E-005    -6.1741515120239478E-028
   2.9266666666666669E-005    -6.6501258384798092E-028
   2.9466666666666660E-005    -5.8757758524247831E-028
   2.9666666666666665E-005    -3.4900460227371358E-028
   2.9866666666666656E-005     6.6512429982181754E-029
   3.0066666666666661E-005     6.4242946635783646E-028
   3.0266666666666666E-005     1.3199807689605019E-027
   3.0466666666666657E-005     1.9936123226438532E-027
   3.0666666666666662E-005     2.5149347881632509E-027
   3.0866666666666667E-005     2.7078153239426715E-027
   3.1066666666666658E-005     2.3957757691670627E-027
   3.1266666666666663E-005     1.4405851983799527E-027
   3.1466666666666668E-005    -2.1202423127838111E-028
   3.1666666666666659E-005    -2.4868088924414086E-027
   3.1866666666666664E-005    -5.1437621398897632E-027
   3.2066666666666656E-005    -7.7649897720557234E-027
   3.2266666666666660E-005    -9.7752615813115206E-027
   3.2466666666666665E-005    -1.0504806925733317E-026
   3.2666666666666657E-005    -9.2969484055311953E-027
   3.2866666666666661E-005    -5.6542930421517760E-027
   3.3066666666666666E-005     5.9359780150738976E-028
   3.3266666666666658E-005     9.1292183963025332E-027
   3.3466666666666662E-005     1.9030036743292502E-026
   3.3666666666666667E-005     2.8736803781689857E-026
   3.3866666666666659E-005     3.6145572780859740E-026
   3.4066666666666664E-005     3.8849143932983965E-026
   3.4266666666666668E-005     3.4530999456489833E-026
   3.4466666666666660E-005     2.1483369506626561E-026
   3.4666666666666665E-005    -8.1523815284984773E-028
   3.4866666666666656E-005    -3.1163278296391469E-026
   3.5066666666666661E-005    -6.6266738088063053E-026
   3.5266666666666666E-005    -1.0067272774297864E-025
   3.5466666666666657E-005    -1.2712526767706044E-025
   3.5666666666666662E-005    -1.3741569934068402E-025
   3.5866666666666667E-005    -1.2372254081429290E-025
   3.6066666666666658E-005    -8.0333194222970906E-026
   3.6266666666666663E-005    -5.5257807443806711E-027
   3.6466666666666668E-005     9.6716658096029312E-026
   3.6666666666666659E-005     2.1556173972607473E-025
   3.6866666666666664E-005     3.3317123714843864E-025
   3.7066666666666669E-005     4.2588933804220148E-025
   3.7266666666666660E-005     4.6697755272109049E-025
   3.7466666666666665E-005     4.3085738680805711E-025
   3.7666666666666656E-005     2.9850984761248192E-025
   3.7866666666666661E-005     6.3344791132148603E-026
   3.8066666666666666E-005    -2.6345691189659942E-025
   3.8266666666666657E-005    -6.4933197077475714E-025
   3.8466666666666662E-005    -1.0396962891531079E-024
   3.8666666666666667E-005    -1.3613348975571844E-024
   3.8866666666666658E-005    -1.5304223022106507E-024
   3.9066666666666663E-005    -1.4650844046976546E-024
   3.9266666666666668E-005    -1.1015189238648260E-024
   3.9466666666666659E-005    -4.1172642517270289E-025
   3.9666666666666664E-005     5.7998187739400043E-025
   3.9866666666666655E-005     1.7851587019266778E-024
   4.0066666666666660E-005     3.0476905460419673E-024
   4.0266666666666665E-005     4.1517209072061775E-024
   4.0466666666666656E-005     4.8430119457953811E-024
   4.0666666666666661E-005     4.8638469455936258E-024
   4.0866666666666666E-005     3.9991516582623603E-024
   4.1066666666666657E-005     2.1287821735059718E-024
   4.1266666666666662E-005    -7.2165695723671544E-025
   4.1466666666666667E-005    -4.3410581740814408E-024
   4.1666666666666658E-005    -8.3145339876006676E-024
   4.1866666666666663E-005    -1.2036209344477874E-023
   4.2066666666666668E-005    -1.4759955145866964E-023
   4.2266666666666660E-005    -1.5690175192138150E-023
   4.2466666666666664E-005    -1.4108338683214493E-023
   4.2666666666666656E-005    -9.5234167820584602E-024
   4.2866666666666661E-005    -1.8267661842964286E-024
   4.3066666666666665E-005     8.5743003616636103E-024
   4.3266666666666657E-005     2.0673841826195342E-023
   4.3466666666666662E-005     3.2864598488336875E-023
   4.3666666666666666E-005     4.3039140272703853E-023
   4.3866666666666658E-005     4.8807407963093864E-023
   4.4066666666666663E-005     4.7827125226055542E-023
   4.4266666666666667E-005     3.8223005606810257E-023
   4.4466666666666659E-005     1.9048786783718248E-023
   4.4666666666666664E-005    -9.2743528838966510E-024
   4.4866666666666655E-005    -4.4624684427882048E-023
   4.5066666666666660E-005    -8.3039152887276686E-023
   4.5266666666666665E-005    -1.1884479837967664E-022
   4.5466666666666656E-005    -1.4511935699543667E-022
   4.5666666666666661E-005    -1.5449900151093589E-022
   4.5866666666666666E-005    -1.4029863431451831E-022
   4.6066666666666657E-005    -9.7846974535150651E-023
   4.6266666666666662E-005    -2.5875344510620265E-023
   4.6466666666666667E-005     7.2257355444401436E-023
   4.6666666666666658E-005     1.8775725105730891E-022
   4.6866666666666663E-005     3.0626367228485643E-022
   4.7066666666666668E-005     4.0861437363477143E-022
   4.7266666666666659E-005     4.7264526667847469E-022
   4.7466666666666664E-005     4.7602977026268596E-022
   4.7666666666666655E-005     3.9999115206407054E-022
   4.7866666666666660E-005     2.3352620347176300E-022
   4.8066666666666665E-005    -2.2415869163698609E-023
   4.8266666666666656E-005    -3.5151513194548554E-022
   4.8466666666666661E-005    -7.2022465483440276E-022
   4.8666666666666666E-005    -1.0782608265668073E-021
   4.8866666666666657E-005    -1.3620655657711491E-021
   4.9066666666666662E-005    -1.5015518248145835E-021
   4.9266666666666667E-005    -1.4299874742090879E-021
   4.9466666666666658E-005    -1.0962908799552449E-021
   4.9666666666666663E-005    -4.7838267097480884E-022
   4.9866666666666655E-005     4.0436002784025279E-022
   5.0066666666666659E-005     1.4819445544866832E-021
   5.0266666666666664E-005     2.6304581778288529E-021
   5.0466666666666656E-005     3.6769793815115973E-021
   5.0666666666666660E-005     4.4143390039751632E-021
   5.0866666666666665E-005     4.6261877136682363E-021
   5.1066666666666657E-005     4.1211749665557897E-021
   5.1266666666666661E-005     2.7730846333895953E-021
   5.1466666666666666E-005     5.6179730272030900E-022
   5.1666666666666658E-005    -2.3917891061260283E-021
   5.1866666666666662E-005    -5.8047254083066667E-021
   5.2066666666666667E-005    -9.2327096929491645E-021
   5.2266666666666659E-005    -1.2098854164734893E-020
   5.2466666666666664E-005    -1.3753877780565844E-020
   5.2666666666666655E-005    -1.3566518140648316E-020
   5.2866666666666660E-005    -1.1037347178694944E-020
   5.3066666666666665E-005    -5.9228882395892234E-021
   5.3266666666666656E-005     1.6485251185332600E-021
   5.3466666666666661E-005     1.1091917673110002E-020
   5.3666666666666666E-005     2.1335666641210578E-020
   5.3866666666666657E-005     3.0867336694318739E-020
   5.4066666666666662E-005     3.7869175010335767E-020
   5.4266666666666667E-005     4.0444963739037610E-020
   5.4466666666666658E-005     3.6924518594928870E-020
   5.4666666666666663E-005     2.6214389203158272E-020
   5.4866666666666668E-005     8.1462750052268192E-021
   5.5066666666666659E-005    -1.6238372911505683E-020
   5.5266666666666664E-005    -4.4535071368905428E-020
   5.5466666666666655E-005    -7.3017139062873746E-020
   5.5666666666666660E-005    -9.6916784490837412E-020
   5.5866666666666665E-005    -1.1096241468956439E-019
   5.6066666666666656E-005    -1.1014769348498794E-019
   5.6266666666666661E-005    -9.0660578411203048E-020
   5.6466666666666666E-005    -5.0852879785955119E-020
   5.6666666666666657E-005     7.9072149614375926E-021
   5.6866666666666662E-005     8.0678744390281311E-020
   5.7066666666666667E-005     1.5886139373400143E-019
   5.7266666666666658E-005     2.3071576888721851E-019
   5.7466666666666663E-005     2.8255631524925902E-019
   5.7666666666666654E-005     3.0058277799529158E-019
   5.7866666666666659E-005     2.7319671491943322E-019
   5.8066666666666664E-005     1.9352525033304275E-019
   5.8266666666666655E-005     6.1770145219749225E-020
   5.8466666666666660E-005    -1.1306457789409427E-019
   5.8666666666666665E-005    -3.1251700383108282E-019
   5.8866666666666656E-005    -5.0945821282593694E-019
   5.9066666666666661E-005    -6.7054672573575205E-019
   5.9266666666666666E-005    -7.6032989169923508E-019
   5.9466666666666657E-005    -7.4668901131398795E-019
   5.9666666666666662E-005    -6.0702214982382346E-019
   5.9866666666666667E-005    -3.3429157702895801E-019
   6.0066666666666659E-005     5.8122853867410039E-020
   6.0266666666666663E-005     5.3386086807686381E-019
   6.0466666666666655E-005     1.0342742744948397E-018
   6.0666666666666660E-005     1.4830052811441375E-018
   6.0866666666666664E-005     1.7945706136804781E-018
   6.1066666666666656E-005     1.8864221964644382E-018
   6.1266666666666661E-005     1.6932457449312544E-018
   6.1466666666666665E-005     1.1816166482864603E-018
   6.1666666666666657E-005     3.6264975827032517E-019
   6.1866666666666662E-005    -6.9990341737404728E-019
   6.2066666666666666E-005    -1.8884401035687613E-018
   6.2266666666666658E-005    -3.0388802111705214E-018
   6.2466666666666663E-005    -3.9572630697266551E-018
   6.2666666666666668E-005    -4.4448062178975536E-018
   6.2866666666666659E-005    -4.3291217005095624E-018
   6.3066666666666664E-005    -3.4977770607529428E-018
   6.3266666666666655E-005    -1.9292139039130314E-018
   6.3466666666666660E-005     2.8456212483712354E-019
   6.3666666666666665E-005     2.9289086166831278E-018
   6.3866666666666656E-005     5.6753449125498141E-018
   6.4066666666666661E-005     8.1104546208844581E-018
   6.4266666666666666E-005     9.7842951222355247E-018
   6.4466666666666657E-005     1.0274455056274235E-017
   6.4666666666666662E-005     9.2586367322091015E-018
   6.4866666666666667E-005     6.5858362612670388E-018
   6.5066666666666658E-005     2.3345456389538159E-018
   6.5266666666666663E-005    -3.1538272970424215E-018
   6.5466666666666654E-005    -9.2763805835289765E-018
   6.5666666666666659E-005    -1.5211456072517379E-017
   6.5866666666666664E-005    -2.0003892387465855E-017
   6.6066666666666655E-005    -2.2687443311238963E-017
   6.6266666666666660E-005    -2.2432266364072480E-017
   6.6466666666666665E-005    -1.8699170481118614E-017
   6.6666666666666656E-005    -1.1377988439675103E-017
   6.6866666666666661E-005    -8.8570901756513598E-019
   6.7066666666666666E-005     1.1798035717813206E-017
   6.7266666666666657E-005     2.5175043419704385E-017
   6.7466666666666662E-005     3.7359625600847296E-017
   6.7666666666666667E-005     4.6292329183472740E-017
   6.7866666666666658E-005     5.0018609098179169E-017
   6.8066666666666663E-005     4.7001563766843057E-017
   6.8266666666666655E-005     3.6427684218075652E-017
   6.8466666666666659E-005     1.8458513862424886E-017
   6.8666666666666664E-005    -5.6187272947527033E-018
   6.8866666666666656E-005    -3.3381386471557215E-017
   6.9066666666666660E-005    -6.1427742542278119E-017
   6.9266666666666665E-005    -8.5704553843533621E-017
   6.9466666666666657E-005    -1.0198645938367220E-016
   6.9666666666666661E-005    -1.0646204912806591E-016
   6.9866666666666666E-005    -9.6359315112596461E-017
   7.0066666666666658E-005    -7.0525538140279347E-017
   7.0266666666666662E-005    -2.9871030475229178E-017
   7.0466666666666654E-005     2.2409866313084544E-017
   7.0666666666666659E-005     8.0907971699355029E-017
   7.0866666666666664E-005     1.3839548240712865E-016
   7.1066666666666655E-005     1.8654561292428119E-016
   7.1266666666666660E-005     2.1692517749649572E-016
   7.1466666666666665E-005     2.2216401010081456E-016
   7.1666666666666656E-005     1.9716526203070238E-016
   7.1866666666666661E-005     1.4019430245441097E-016
   7.2066666666666666E-005     5.3675740022398615E-017
   7.2266666666666657E-005    -5.5457225672764270E-017
   7.2466666666666662E-005    -1.7597899602129200E-016
   7.2666666666666667E-005    -2.9321241903245603E-016
   7.2866666666666658E-005    -3.9047596828602606E-016
   7.3066666666666663E-005    -4.5103540941313991E-016
   7.3266666666666654E-005    -4.6037437117309220E-016
   7.3466666666666659E-005    -4.0852631980135400E-016
   7.3666666666666664E-005    -2.9216487750471888E-016
   7.3866666666666655E-005    -1.1613451687610978E-016
   7.4066666666666660E-005     1.0586979442692284E-016
   7.4266666666666665E-005     3.5169623239210282E-016
   7.4466666666666656E-005     5.9232098147119004E-016
   7.4666666666666661E-005     7.9459827262702933E-016
   7.4866666666666666E-005     9.2499968307109852E-016
   7.5066666666666657E-005     9.5400325585538823E-016
   7.5266666666666662E-005     8.6066117798003000E-016
   7.5466666666666653E-005     6.3677544106502306E-016