  -3.3333333333333335E-005     0.0000000000000000     
  -3.3133333333333337E-005     0.0000000000000000     
  -3.2933333333333332E-005     0.0000000000000000     
  -3.2733333333333334E-005     0.0000000000000000     
  -3.2533333333333336E-005     0.0000000000000000     
  -3.2333333333333338E-005     0.0000000000000000     
  -3.2133333333333333E-005     0.0000000000000000     
  -3.1933333333333335E-005     0.0000000000000000     
  -3.1733333333333337E-005     0.0000000000000000     
  -3.1533333333333332E-005     0.0000000000000000     
  -3.1333333333333334E-005     0.0000000000000000     
  -3.1133333333333336E-005     0.0000000000000000     
  -3.0933333333333338E-005     0.0000000000000000     
  -3.0733333333333333E-005     0.0000000000000000     
  -3.0533333333333335E-005     0.0000000000000000     
  -3.0333333333333337E-005     0.0000000000000000     
  -3.0133333333333335E-005     0.0000000000000000     
  -2.9933333333333334E-005     0.0000000000000000     
  -2.9733333333333336E-005     0.0000000000000000     
  -2.9533333333333334E-005     0.0000000000000000     
  -2.9333333333333336E-005     0.0000000000000000     
  -2.9133333333333334E-005     0.0000000000000000     
  -2.8933333333333336E-005     0.0000000000000000     
  -2.8733333333333335E-005     0.0000000000000000     
  -2.8533333333333333E-005     0.0000000000000000     
  -2.8333333333333335E-005     0.0000000000000000     
  -2.8133333333333337E-005     0.0000000000000000     
  -2.7933333333333336E-005     0.0000000000000000     
  -2.7733333333333334E-005     0.0000000000000000     
  -2.7533333333333336E-005     0.0000000000000000     
  -2.7333333333333335E-005     0.0000000000000000     
  -2.7133333333333333E-005     0.0000000000000000     
  -2.6933333333333335E-005     0.0000000000000000     
  -2.6733333333333337E-005     0.0000000000000000     
  -2.6533333333333336E-005     0.0000000000000000     
  -2.6333333333333334E-005     0.0000000000000000     
  -2.6133333333333336E-005     0.0000000000000000     
  -2.5933333333333335E-005     0.0000000000000000     
  -2.5733333333333333E-005     0.0000000000000000     
  -2.5533333333333335E-005     0.0000000000000000     
  -2.5333333333333337E-005     0.0000000000000000     
  -2.5133333333333336E-005     0.0000000000000000     
  -2.4933333333333334E-005     0.0000000000000000     
  -2.4733333333333336E-005     0.0000000000000000     
  -2.4533333333333334E-005     0.0000000000000000     
  -2.4333333333333333E-005     0.0000000000000000     
  -2.4133333333333335E-005     0.0000000000000000     
  -2.3933333333333337E-005     0.0000000000000000     
  -2.3733333333333335E-005     0.0000000000000000     
  -2.3533333333333334E-005     0.0000000000000000     
  -2.3333333333333336E-005     0.0000000000000000     
  -2.3133333333333338E-005     0.0000000000000000     
  -2.2933333333333336E-005     0.0000000000000000     
  -2.2733333333333335E-005     0.0000000000000000     
  -2.2533333333333337E-005     0.0000000000000000     
  -2.2333333333333335E-005     0.0000000000000000     
  -2.2133333333333334E-005     0.0000000000000000     
  -2.1933333333333336E-005     0.0000000000000000     
  -2.1733333333333338E-005     0.0000000000000000     
  -2.1533333333333336E-005     0.0000000000000000     
  -2.1333333333333335E-005     0.0000000000000000     
  -2.1133333333333337E-005     0.0000000000000000     
  -2.0933333333333335E-005     0.0000000000000000     
  -2.0733333333333334E-005     0.0000000000000000     
  -2.0533333333333336E-005     0.0000000000000000     
  -2.0333333333333337E-005     0.0000000000000000     
  -2.0133333333333336E-005     0.0000000000000000     
  -1.9933333333333334E-005     0.0000000000000000     
  -1.9733333333333336E-005     0.0000000000000000     
  -1.9533333333333335E-005     0.0000000000000000     
  -1.9333333333333333E-005     0.0000000000000000     
  -1.9133333333333335E-005     0.0000000000000000     
  -1.8933333333333337E-005     0.0000000000000000     
  -1.8733333333333336E-005     0.0000000000000000     
  -1.8533333333333334E-005     0.0000000000000000     
  -1.8333333333333336E-005     0.0000000000000000     
  -1.8133333333333335E-005     0.0000000000000000     
  -1.7933333333333337E-005     0.0000000000000000     
  -1.7733333333333335E-005     0.0000000000000000     
  -1.7533333333333337E-005     0.0000000000000000     
  -1.7333333333333336E-005     0.0000000000000000     
  -1.7133333333333334E-005     0.0000000000000000     
  -1.6933333333333336E-005     0.0000000000000000     
  -1.6733333333333335E-005     0.0000000000000000     
  -1.6533333333333337E-005     0.0000000000000000     
  -1.6333333333333335E-005     0.0000000000000000     
  -1.6133333333333337E-005     0.0000000000000000     
  -1.5933333333333336E-005     0.0000000000000000     
  -1.5733333333333334E-005     0.0000000000000000     
  -1.5533333333333336E-005     0.0000000000000000     
  -1.5333333333333334E-005     0.0000000000000000     
  -1.5133333333333336E-005     0.0000000000000000     
  -1.4933333333333335E-005     0.0000000000000000     
  -1.4733333333333337E-005     0.0000000000000000     
  -1.4533333333333335E-005     0.0000000000000000     
  -1.4333333333333337E-005     0.0000000000000000     
  -1.4133333333333336E-005     0.0000000000000000     
  -1.3933333333333334E-005     0.0000000000000000     
  -1.3733333333333336E-005     0.0000000000000000     
  -1.3533333333333335E-005     0.0000000000000000     
  -1.3333333333333337E-005     0.0000000000000000     
  -1.3133333333333335E-005     0.0000000000000000     
  -1.2933333333333337E-005     0.0000000000000000     
  -1.2733333333333336E-005     0.0000000000000000     
  -1.2533333333333338E-005     0.0000000000000000     
  -1.2333333333333336E-005     0.0000000000000000     
  -1.2133333333333335E-005     0.0000000000000000     
  -1.1933333333333337E-005     0.0000000000000000     
  -1.1733333333333335E-005     0.0000000000000000     
  -1.1533333333333337E-005     0.0000000000000000     
  -1.1333333333333336E-005     0.0000000000000000     
  -1.1133333333333337E-005     0.0000000000000000     
  -1.0933333333333336E-005     0.0000000000000000     
  -1.0733333333333334E-005     0.0000000000000000     
  -1.0533333333333336E-005     0.0000000000000000     
  -1.0333333333333335E-005     0.0000000000000000     
  -1.0133333333333337E-005     0.0000000000000000     
  -9.9333333333333354E-006     0.0000000000000000     
  -9.7333333333333373E-006     0.0000000000000000     
  -9.5333333333333358E-006     0.0000000000000000     
  -9.3333333333333343E-006     0.0000000000000000     
  -9.1333333333333362E-006     0.0000000000000000     
  -8.9333333333333348E-006     0.0000000000000000     
  -8.7333333333333367E-006     0.0000000000000000     
  -8.5333333333333352E-006     0.0000000000000000     
  -8.3333333333333371E-006     0.0000000000000000     
  -8.1333333333333356E-006     0.0000000000000000     
  -7.9333333333333376E-006     0.0000000000000000     
  -7.7333333333333361E-006     0.0000000000000000     
  -7.5333333333333346E-006     0.0000000000000000     
  -7.3333333333333365E-006     0.0000000000000000     
  -7.1333333333333351E-006     0.0000000000000000     
  -6.9333333333333370E-006     0.0000000000000000     
  -6.7333333333333355E-006     0.0000000000000000     
  -6.5333333333333374E-006     0.0000000000000000     
  -6.3333333333333359E-006     0.0000000000000000     
  -6.1333333333333379E-006     0.0000000000000000     
  -5.9333333333333364E-006     0.0000000000000000     
  -5.7333333333333349E-006     0.0000000000000000     
  -5.5333333333333368E-006     0.0000000000000000     
  -5.3333333333333354E-006     0.0000000000000000     
  -5.1333333333333373E-006     0.0000000000000000     
  -4.9333333333333358E-006     0.0000000000000000     
  -4.7333333333333377E-006     0.0000000000000000     
  -4.5333333333333362E-006     0.0000000000000000     
  -4.3333333333333348E-006     0.0000000000000000     
  -4.1333333333333367E-006     0.0000000000000000     
  -3.9333333333333352E-006     0.0000000000000000     
  -3.7333333333333371E-006     0.0000000000000000     
  -3.5333333333333356E-006     0.0000000000000000     
  -3.3333333333333376E-006     0.0000000000000000     
  -3.1333333333333361E-006     0.0000000000000000     
  -2.9333333333333346E-006     0.0000000000000000     
  -2.7333333333333365E-006     0.0000000000000000     
  -2.5333333333333384E-006     0.0000000000000000     
  -2.3333333333333336E-006     0.0000000000000000     
  -2.1333333333333355E-006     0.0000000000000000     
  -1.9333333333333374E-006     0.0000000000000000     
  -1.7333333333333393E-006     0.0000000000000000     
  -1.5333333333333345E-006     0.0000000000000000     
  -1.3333333333333364E-006     0.0000000000000000     
  -1.1333333333333383E-006     0.0000000000000000     
  -9.3333333333333343E-007     0.0000000000000000     
  -7.3333333333333535E-007     0.0000000000000000     
  -5.3333333333333726E-007     0.0000000000000000     
  -3.3333333333333918E-007     0.0000000000000000     
  -1.3333333333333432E-007     0.0000000000000000     
   6.6666666666663770E-008     0.0000000000000000     
   2.6666666666666185E-007     0.0000000000000000     
   4.6666666666666672E-007     0.0000000000000000     
   6.6666666666666480E-007     0.0000000000000000     
   8.6666666666666289E-007     0.0000000000000000     
   1.0666666666666610E-006     0.0000000000000000     
   1.2666666666666658E-006     0.0000000000000000     
   1.4666666666666639E-006     0.0000000000000000     
   1.6666666666666620E-006     0.0000000000000000     
   1.8666666666666669E-006     0.0000000000000000     
   2.0666666666666649E-006     0.0000000000000000     
   2.2666666666666630E-006     0.0000000000000000     
   2.4666666666666611E-006     0.0000000000000000     
   2.6666666666666660E-006     0.0000000000000000     
   2.8666666666666641E-006     0.0000000000000000     
   3.0666666666666622E-006     0.0000000000000000     
   3.2666666666666602E-006     0.0000000000000000     
   3.4666666666666651E-006     0.0000000000000000     
   3.6666666666666632E-006     0.0000000000000000     
   3.8666666666666613E-006     0.0000000000000000     
   4.0666666666666661E-006     0.0000000000000000     
   4.2666666666666642E-006     0.0000000000000000     
   4.4666666666666623E-006     0.0000000000000000     
   4.6666666666666604E-006     0.0000000000000000     
   4.8666666666666652E-006     0.0000000000000000     
   5.0666666666666633E-006     0.0000000000000000     
   5.2666666666666614E-006     0.0000000000000000     
   5.4666666666666663E-006     0.0000000000000000     
   5.6666666666666644E-006     0.0000000000000000     
   5.8666666666666624E-006     0.0000000000000000     
   6.0666666666666605E-006     0.0000000000000000     
   6.2666666666666654E-006     0.0000000000000000     
   6.4666666666666635E-006     0.0000000000000000     
   6.6666666666666616E-006     0.0000000000000000     
   6.8666666666666664E-006     0.0000000000000000     
   7.0666666666666645E-006     0.0000000000000000     
   7.2666666666666626E-006     0.0000000000000000     
   7.4666666666666607E-006     0.0000000000000000     
   7.6666666666666655E-006     0.0000000000000000     
   7.8666666666666636E-006     0.0000000000000000     
   8.0666666666666617E-006     0.0000000000000000     
   8.2666666666666598E-006     0.0000000000000000     
   8.4666666666666647E-006     0.0000000000000000     
   8.6666666666666627E-006     0.0000000000000000     
   8.8666666666666608E-006     0.0000000000000000     
   9.0666666666666657E-006     0.0000000000000000     
   9.2666666666666638E-006     0.0000000000000000     
   9.4666666666666619E-006     0.0000000000000000     
   9.6666666666666599E-006     0.0000000000000000     
   9.8666666666666648E-006     0.0000000000000000     
   1.0066666666666663E-005     0.0000000000000000     
   1.0266666666666661E-005     0.0000000000000000     
   1.0466666666666666E-005     0.0000000000000000     
   1.0666666666666664E-005     0.0000000000000000     
   1.0866666666666662E-005     0.0000000000000000     
   1.1066666666666660E-005     0.0000000000000000     
   1.1266666666666665E-005     0.0000000000000000     
   1.1466666666666663E-005     0.0000000000000000     
   1.1666666666666661E-005     0.0000000000000000     
   1.1866666666666666E-005     0.0000000000000000     
   1.2066666666666664E-005     0.0000000000000000     
   1.2266666666666662E-005     0.0000000000000000     
   1.2466666666666660E-005     0.0000000000000000     
   1.2666666666666665E-005     0.0000000000000000     
   1.2866666666666663E-005     0.0000000000000000     
   1.3066666666666661E-005     0.0000000000000000     
   1.3266666666666666E-005     0.0000000000000000     
   1.3466666666666664E-005     0.0000000000000000     
   1.3666666666666662E-005     0.0000000000000000     
   1.3866666666666660E-005     0.0000000000000000     
   1.4066666666666665E-005     0.0000000000000000     
   1.4266666666666663E-005     0.0000000000000000     
   1.4466666666666661E-005     0.0000000000000000     
   1.4666666666666666E-005     0.0000000000000000     
   1.4866666666666664E-005     0.0000000000000000     
   1.5066666666666662E-005     0.0000000000000000     
   1.5266666666666661E-005     0.0000000000000000     
   1.5466666666666665E-005     0.0000000000000000     
   1.5666666666666663E-005     0.0000000000000000     
   1.5866666666666662E-005     0.0000000000000000     
   1.6066666666666660E-005     0.0000000000000000     
   1.6266666666666665E-005     0.0000000000000000     
   1.6466666666666663E-005     1.7108953214493456E-038
   1.6666666666666661E-005     4.5659741005744120E-038
   1.6866666666666666E-005     7.8501216412954123E-038
   1.7066666666666664E-005     1.0133108691582618E-037
   1.7266666666666662E-005     5.2649485008122596E-038
   1.7466666666666660E-005     0.0000000000000000     
   1.7666666666666665E-005    -1.2877444114240712E-037
   1.7866666666666663E-005    -2.5754888228481425E-037
   1.8066666666666661E-005    -3.4055597390980482E-037
   1.8266666666666666E-005    -3.5491206367944599E-037
   1.8466666666666664E-005    -3.0061715159373777E-037
   1.8666666666666662E-005    -8.6136561038622470E-038
   1.8866666666666660E-005     1.3978586689584697E-037
   1.9066666666666665E-005     4.2291748172708709E-037
   1.9266666666666663E-005     6.4883988724078110E-037
   1.9466666666666661E-005     6.4592559000894320E-037
   1.9666666666666666E-005     5.0570928906640651E-037
   1.9866666666666664E-005     1.8242361247497904E-037
   2.0066666666666662E-005    -4.1546611637939688E-037
   2.0266666666666660E-005    -1.1964252208826636E-036
   2.0466666666666665E-005    -2.1604537234555965E-036
   2.0666666666666663E-005    -2.9414129176419649E-036
   2.0866666666666661E-005    -3.5393027137586671E-036
   2.1066666666666659E-005    -3.8625884127708700E-036
   2.1266666666666664E-005    -3.2705274801671487E-036
   2.1466666666666662E-005    -1.8546542562499295E-036
   2.1666666666666660E-005     2.9349647026285278E-037
   2.1866666666666665E-005     3.1739247890542999E-036
   2.2066666666666663E-005     7.1527683303834220E-036
   2.2266666666666661E-005     1.2596168132467094E-035
   2.2466666666666659E-005     1.7307290342272102E-035
   2.2666666666666664E-005     2.1286134959798444E-035
   2.2866666666666662E-005     2.2335869208210128E-035
   2.3066666666666660E-005     1.7527384153322120E-035
   2.3266666666666665E-005     4.6638470182984266E-036
   2.3466666666666663E-005    -1.4057910854954586E-035
   2.3666666666666661E-005    -3.8637888031507289E-035
   2.3866666666666660E-005    -6.9076083076430056E-035
   2.4066666666666664E-005    -9.6585170622097418E-035
   2.4266666666666662E-005    -1.1237782243102465E-034
   2.4466666666666661E-005    -1.2231226498115959E-034
   2.4666666666666665E-005    -1.1760114994600272E-034
   2.4866666666666663E-005    -7.7740721960906957E-035
   2.5066666666666662E-005    -1.1518300653779261E-035
   2.5266666666666660E-005     8.9853433603287327E-035
   2.5466666666666665E-005     2.0879982433532336E-034
   2.5666666666666663E-005     3.2921076164233896E-034
   2.5866666666666661E-005     4.3790525747289592E-034
   2.6066666666666666E-005     5.1145047479182505E-034
   2.6266666666666664E-005     5.3227169398725329E-034
   2.6466666666666662E-005     4.7107784580634511E-034
   2.6666666666666660E-005     3.0443602433730920E-034
   2.6866666666666665E-005     4.4062705494915243E-035
   2.7066666666666663E-005    -2.6317637925331326E-034
   2.7266666666666661E-005    -5.9384831251614798E-034
   2.7466666666666666E-005    -9.2452024577898270E-034
   2.7666666666666664E-005    -1.1907518083184800E-033
   2.7866666666666662E-005    -1.2988114224052227E-033
   2.8066666666666667E-005    -1.1491093699276235E-033
   2.8266666666666658E-005    -7.1821285976826126E-034
   2.8466666666666663E-005    -1.4671898301477322E-034
   2.8666666666666668E-005     6.5910363143239140E-034
   2.8866666666666659E-005     1.6523892865440202E-033
   2.9066666666666664E-005     2.5519436853504683E-033
   2.9266666666666669E-005     3.0765717732392478E-033
   2.9466666666666660E-005     2.9450795057883282E-033
   2.9666666666666665E-005     1.8762719202207176E-033
   2.9866666666666656E-005    -3.1731372566268563E-034
   3.0066666666666661E-005    -2.9326912646985998E-033
   3.0266666666666666E-005    -5.3606057860289238E-033
   3.0466666666666657E-005    -7.4135945474545561E-033
   3.0666666666666662E-005    -8.5292672560795281E-033
   3.0866666666666667E-005    -8.1452361904017639E-033
   3.1066666666666658E-005    -4.5743334104692349E-033
   3.1266666666666663E-005     1.8085149564713824E-033
   3.1466666666666668E-005     9.5036044014333824E-033
   3.1666666666666659E-005     1.7198693111711413E-032
   3.1866666666666664E-005     2.3206615351405354E-032
   3.2066666666666656E-005     2.5840204649931115E-032
   3.2266666666666660E-005     2.3224826697635468E-032
   3.2466666666666665E-005     1.5360484433254291E-032
   3.2666666666666657E-005     1.1223998423895372E-033
   3.2866666666666661E-005    -1.9114499111002192E-032
   3.3066666666666666E-005    -4.3100658234834731E-032
   3.3266666666666658E-005    -6.4462335202624505E-032
   3.3466666666666662E-005    -7.8887878449008781E-032
   3.3666666666666667E-005    -8.2534303067561796E-032
   3.3866666666666659E-005    -6.9683981025996926E-032
   3.4066666666666664E-005    -3.7337503306340761E-032
   3.4266666666666668E-005     1.1505721073433288E-032
   3.4466666666666660E-005     6.1848652900929920E-032
   3.4666666666666665E-005     1.0919217571045314E-031
   3.4866666666666656E-005     1.5053688636150129E-031
   3.5066666666666661E-005     1.7538483859748805E-031
   3.5266666666666666E-005     1.7623753044463103E-031
   3.5466666666666657E-005     1.2909967800419943E-031
   3.5666666666666662E-005     2.1973662836714873E-032
   3.5866666666666667E-005    -1.5713814525224454E-031
   3.6066666666666658E-005    -3.7224285567941313E-031
   3.6266666666666663E-005    -6.1134277947565147E-031
   3.6466666666666668E-005    -8.1444981856609589E-031
   3.6666666666666659E-005    -9.5756870080695910E-031
   3.6866666666666664E-005    -9.9270892893044056E-031
   3.7066666666666669E-005    -8.5988229906718504E-031
   3.7266666666666660E-005    -5.3509349205363119E-031
   3.7466666666666665E-005     2.9648012887908522E-032
   3.7666666666666656E-005     8.3434219224754710E-031
   3.7866666666666661E-005     1.5910458978492721E-030
   3.8066666666666666E-005     2.0598065258046458E-030
   3.8266666666666657E-005     2.2646190191190373E-030
   3.8466666666666662E-005     2.2294786969560077E-030
   3.8666666666666667E-005     1.9063952971466269E-030
   3.8866666666666658E-005     1.1993875430366494E-030
   3.9066666666666663E-005     1.2474581149796279E-032
   3.9266666666666668E-005    -1.3664006519269032E-030
   3.9466666666666659E-005    -3.7050863475771280E-030
   3.9666666666666664E-005    -6.9076020284827913E-030
   3.9866666666666655E-005    -1.0398061163192998E-029
   4.0066666666666660E-005    -1.3888520297903205E-029
   4.0266666666666665E-005    -1.6995054325996431E-029
   4.0466666666666656E-005    -1.8565892441520039E-029
   4.0666666666666661E-005    -1.8217108033224280E-029
   4.0866666666666666E-005    -1.2877309275969918E-029
   4.1066666666666657E-005    -1.3947216022223944E-030
   4.1266666666666662E-005     1.7382426546287311E-029
   4.1466666666666667E-005     4.0382742592103580E-029
   4.1666666666666658E-005     6.2231280308803367E-029
   4.1866666666666663E-005     7.6401333948756760E-029
   4.2066666666666668E-005     7.6750113843154212E-029
   4.2266666666666660E-005     5.9438380962888064E-029
   4.2466666666666664E-005     2.3698279076193279E-029
   4.2666666666666656E-005    -2.5863096556057447E-029
   4.2866666666666661E-005    -7.3120933585668438E-029
   4.3066666666666665E-005    -1.1193243632529907E-028
   4.3266666666666657E-005    -1.2847633102939341E-028
   4.3466666666666662E-005    -1.1430628942650217E-028
   4.3666666666666666E-005    -6.0208114976348881E-029
   4.3866666666666658E-005     2.4604010827117677E-029
   4.4066666666666663E-005     1.3091589445288657E-028
   4.4266666666666667E-005     2.4337054668260624E-028
   4.4466666666666659E-005     3.2203987378946664E-028
   4.4666666666666664E-005     3.4235270506116742E-028
   4.4866666666666655E-005     2.7820219343306464E-028
   4.5066666666666660E-005     1.0962429354638604E-028
   4.5266666666666665E-005    -1.6338099459886839E-028
   4.5466666666666656E-005    -5.1009973469571307E-028
   4.5666666666666661E-005    -8.6910400598192823E-028
   4.5866666666666666E-005    -1.1789660080659156E-027
   4.6066666666666657E-005    -1.4396856927994267E-027
   4.6266666666666662E-005    -1.4792649976040427E-027
   4.6466666666666667E-005    -1.2792755655103971E-027
   4.6666666666666658E-005    -7.9671783272563675E-028
   4.6866666666666663E-005    -4.3877354513256372E-029
   4.7066666666666668E-005     8.5638997945405589E-028
   4.7266666666666659E-005     1.7566572652731196E-027
   4.7466666666666664E-005     2.6077821374452096E-027
   4.7666666666666655E-005     2.9674842212985249E-027
   4.7866666666666660E-005     2.9831899874020084E-027
   4.8066666666666665E-005     2.5074727725937226E-027
   4.8266666666666656E-005     1.2485500495496209E-027
   4.8466666666666661E-005    -1.2635015251903851E-027
   4.8666666666666666E-005    -5.3481071588491377E-027
   4.8866666666666657E-005    -1.0710413043620276E-026
   4.9066666666666662E-005    -1.6269287042235353E-026
   4.9266666666666667E-005    -2.0845315079026891E-026
   4.9466666666666658E-005    -2.2669374114563731E-026
   4.9666666666666663E-005    -1.8989495147591173E-026
   4.9866666666666655E-005    -8.5279769640318593E-027
   5.0066666666666659E-005     7.3391943947429048E-027
   5.0266666666666664E-005     2.6056621122810270E-026
   5.0466666666666656E-005     4.3398061039134353E-026
   5.0666666666666660E-005     5.2876730179382217E-026
   5.0866666666666665E-005     5.2133801932962863E-026
   5.1066666666666657E-005     3.8024167989445804E-026
   5.1266666666666661E-005     1.4479209114637282E-026
   5.1466666666666666E-005    -1.4569690844168549E-026
   5.1666666666666658E-005    -4.2046036647759137E-026
   5.1866666666666662E-005    -6.2151028878395441E-026
   5.2066666666666667E-005    -6.8103039875070373E-026
   5.2266666666666659E-005    -6.2260902411350755E-026
   5.2466666666666664E-005    -4.8555994171554918E-026
   5.2666666666666655E-005    -3.7996194242189568E-026
   5.2866666666666660E-005    -3.3726607852197282E-026
   5.3066666666666665E-005    -3.8892346393496460E-026
   5.3266666666666656E-005    -5.3493403703111277E-026
   5.3466666666666661E-005    -7.1239569323156583E-026
   5.3666666666666666E-005    -7.0901369861946362E-026
   5.3866666666666657E-005    -3.9112090377919177E-026
   5.4066666666666662E-005     3.3563584815752703E-026
   5.4266666666666667E-005     1.5656098373184865E-025
   5.4466666666666658E-005     3.1729967621013463E-025
   5.4666666666666663E-005     4.7803836868842060E-025
   5.4866666666666668E-005     6.0103578609344402E-025
   5.5066666666666659E-005     6.6113101263795439E-025
   5.5266666666666664E-005     6.0800241396267708E-025
   5.5466666666666655E-005     4.0390859173483307E-025
   5.5666666666666660E-005     8.3445798998915959E-026
   5.5866666666666665E-005    -3.7540169776618438E-025
   5.6066666666666656E-005    -8.3424920069426055E-025
   5.6266666666666661E-005    -1.2176141041720050E-024
   5.6466666666666666E-005    -1.4500139073566992E-024
   5.6666666666666657E-005    -1.6824137105413934E-024
   5.6866666666666662E-005    -1.9148135137260877E-024
   5.7066666666666667E-005    -2.0968914853362809E-024
   5.7266666666666658E-005    -2.1280043566534239E-024
   5.7466666666666663E-005    -1.8949281052425027E-024
   5.7666666666666654E-005    -1.3599215546378678E-024
   5.7866666666666659E-005    -8.2491500403323293E-025
   5.8066666666666664E-005     1.1266526239508463E-025
   5.8266666666666655E-005     1.2515325592985666E-024
   5.8466666666666660E-005     2.3903998068982419E-024
   5.8666666666666665E-005     3.9318409182330197E-024
   5.8866666666666656E-005     5.1713516317664706E-024
   5.9066666666666661E-005     6.3102186821509196E-024
   5.9266666666666666E-005     6.9269986527983778E-024
   5.9466666666666657E-005     6.4367003009590780E-024
   5.9666666666666662E-005     3.3296722292720651E-024
   5.9866666666666667E-005    -1.3876507057096784E-024
   6.0066666666666659E-005    -9.7281372310159858E-024
   6.0266666666666663E-005    -2.1289213285696528E-023
   6.0466666666666655E-005    -3.4460584006456575E-023
   6.0666666666666660E-005    -4.4008792320183416E-023
   6.0866666666666664E-005    -4.5102951862055822E-023
   6.1066666666666656E-005    -3.4522471722192974E-023
   6.1266666666666661E-005    -5.6248835433961347E-024
   6.1466666666666665E-005     4.3401391511268583E-023
   6.1666666666666657E-005     1.1014091104825147E-022
   6.1866666666666662E-005     1.8815248930348636E-022
   6.2066666666666666E-005     2.5650230113996604E-022
   6.2266666666666658E-005     2.9586681372018007E-022
   6.2466666666666663E-005     2.9980483260259233E-022
   6.2666666666666668E-005     2.4577220248537535E-022
   6.2866666666666659E-005     1.4504105150654081E-022
   6.3066666666666664E-005     8.1788956658351564E-024
   6.3266666666666655E-005    -1.4156562065895016E-022
   6.3466666666666660E-005    -2.8164835952092758E-022
   6.3666666666666665E-005    -3.8952517666232233E-022
   6.3866666666666656E-005    -4.4587256448917294E-022
   6.4066666666666661E-005    -4.4424935380349225E-022
   6.4266666666666666E-005    -3.9109668855971846E-022
   6.4466666666666657E-005    -2.9929693239737483E-022
   6.4666666666666662E-005    -1.4308535803741482E-022
   6.4866666666666667E-005     6.7876255479631882E-023
   6.5066666666666658E-005     3.8672766132224240E-022
   6.5266666666666663E-005     7.5066731465963543E-022
   6.5466666666666654E-005     1.1017246043575052E-021
   6.5666666666666659E-005     1.4012525404714777E-021
   6.5866666666666664E-005     1.5461920119369750E-021
   6.6066666666666655E-005     1.5623078974943375E-021
   6.6266666666666660E-005     1.2692470557031413E-021
   6.6466666666666665E-005     5.8971545618754063E-022
   6.6666666666666656E-005    -4.2475754746856732E-022
   6.6866666666666661E-005    -1.6582306572659241E-021
   6.7066666666666666E-005    -2.8337333704991413E-021
   6.7266666666666657E-005    -3.8031183664741819E-021
   6.7466666666666662E-005    -4.5663855442168501E-021
   6.7666666666666667E-005    -4.6082401561978230E-021
   6.7866666666666658E-005    -3.7225647880815118E-021
   6.8066666666666663E-005    -2.2185361672164750E-021
   6.8266666666666655E-005    -4.0533097046417329E-022
   6.8466666666666659E-005     1.4078741253139325E-021
   6.8666666666666664E-005     2.9119027461789693E-021
   6.8866666666666656E-005     4.0552254880599420E-021
   6.9066666666666660E-005     4.7347830379438808E-021
   6.9266666666666665E-005     5.4143405878278197E-021
   6.9466666666666657E-005     5.4755450869114247E-021
   6.9666666666666661E-005     3.8878070401360502E-021
   6.9866666666666666E-005     1.8878333568959309E-021
   7.0066666666666658E-005     3.0009525963345849E-022
   7.0266666666666662E-005    -4.6317176664791590E-022
   7.0466666666666654E-005     4.2250345000710156E-022
   7.0666666666666659E-005     2.9571208086243150E-021
   7.0866666666666664E-005     7.3467984808457824E-021
   7.1066666666666655E-005     1.4673654154110794E-020
   7.1266666666666660E-005     2.2824979484718162E-020
   7.1466666666666665E-005     3.0976304815325529E-020
   7.1666666666666656E-005     3.5005275396872582E-020
   7.1866666666666661E-005     3.7385303432560656E-020
   7.2066666666666666E-005     2.8222736878410141E-020
   7.2266666666666657E-005     2.5707480968440986E-021
   7.2466666666666662E-005    -3.1325953414016841E-020
   7.2666666666666667E-005    -6.5222654924877780E-020
   7.2866666666666658E-005    -9.0050177280275734E-020
   7.3066666666666663E-005    -9.6842389934495924E-020
   7.3266666666666654E-005    -8.3022825612240274E-020
   7.3466666666666659E-005    -5.1064896516710117E-020
   7.3666666666666664E-005    -5.9154319010695254E-021
   7.3866666666666655E-005     5.9021340033704551E-020
   7.4066666666666660E-005     1.2395810712171723E-019
   7.4266666666666665E-005     1.9549063146846875E-019
   7.4466666666666656E-005     2.6042739855648142E-019
   7.4666666666666661E-005     2.7259801710170383E-019
   7.4866666666666666E-005     2.5508768920851021E-019
   7.5066666666666657E-005     2.2933264535484742E-019
   7.5266666666666662E-005     2.0687548013055406E-019
   7.5466666666666653E-005     1.7782254472282478E-019