  -3.3333333333333335E-005     0.0000000000000000     
  -3.3133333333333337E-005     0.0000000000000000     
  -3.2933333333333332E-005     0.0000000000000000     
  -3.2733333333333334E-005     0.0000000000000000     
  -3.2533333333333336E-005     0.0000000000000000     
  -3.2333333333333338E-005     0.0000000000000000     
  -3.2133333333333333E-005     0.0000000000000000     
  -3.1933333333333335E-005     0.0000000000000000     
  -3.1733333333333337E-005     0.0000000000000000     
  -3.1533333333333332E-005     0.0000000000000000     
  -3.1333333333333334E-005     0.0000000000000000     
  -3.1133333333333336E-005     0.0000000000000000     
  -3.0933333333333338E-005     0.0000000000000000     
  -3.0733333333333333E-005     0.0000000000000000     
  -3.0533333333333335E-005     0.0000000000000000     
  -3.0333333333333337E-005     0.0000000000000000     
  -3.0133333333333335E-005     0.0000000000000000     
  -2.9933333333333334E-005     0.0000000000000000     
  -2.9733333333333336E-005     0.0000000000000000     
  -2.9533333333333334E-005     0.0000000000000000     
  -2.9333333333333336E-005     0.0000000000000000     
  -2.9133333333333334E-005     0.0000000000000000     
  -2.8933333333333336E-005     0.0000000000000000     
  -2.8733333333333335E-005     0.0000000000000000     
  -2.8533333333333333E-005     0.0000000000000000     
  -2.8333333333333335E-005     0.0000000000000000     
  -2.8133333333333337E-005     0.0000000000000000     
  -2.7933333333333336E-005     0.0000000000000000     
  -2.7733333333333334E-005     0.0000000000000000     
  -2.7533333333333336E-005     0.0000000000000000     
  -2.7333333333333335E-005     0.0000000000000000     
  -2.7133333333333333E-005     0.0000000000000000     
  -2.6933333333333335E-005     0.0000000000000000     
  -2.6733333333333337E-005     0.0000000000000000     
  -2.6533333333333336E-005     0.0000000000000000     
  -2.6333333333333334E-005     0.0000000000000000     
  -2.6133333333333336E-005     0.0000000000000000     
  -2.5933333333333335E-005     0.0000000000000000     
  -2.5733333333333333E-005     0.0000000000000000     
  -2.5533333333333335E-005     0.0000000000000000     
  -2.5333333333333337E-005     0.0000000000000000     
  -2.5133333333333336E-005     0.0000000000000000     
  -2.4933333333333334E-005     0.0000000000000000     
  -2.4733333333333336E-005     0.0000000000000000     
  -2.4533333333333334E-005     0.0000000000000000     
  -2.4333333333333333E-005     0.0000000000000000     
  -2.4133333333333335E-005     0.0000000000000000     
  -2.3933333333333337E-005     0.0000000000000000     
  -2.3733333333333335E-005     0.0000000000000000     
  -2.3533333333333334E-005     0.0000000000000000     
  -2.3333333333333336E-005     0.0000000000000000     
  -2.3133333333333338E-005     0.0000000000000000     
  -2.2933333333333336E-005     0.0000000000000000     
  -2.2733333333333335E-005     0.0000000000000000     
  -2.2533333333333337E-005     0.0000000000000000     
  -2.2333333333333335E-005     0.0000000000000000     
  -2.2133333333333334E-005     0.0000000000000000     
  -2.1933333333333336E-005     0.0000000000000000     
  -2.1733333333333338E-005     0.0000000000000000     
  -2.1533333333333336E-005     0.0000000000000000     
  -2.1333333333333335E-005     0.0000000000000000     
  -2.1133333333333337E-005     0.0000000000000000     
  -2.0933333333333335E-005     0.0000000000000000     
  -2.0733333333333334E-005     0.0000000000000000     
  -2.0533333333333336E-005     0.0000000000000000     
  -2.0333333333333337E-005     0.0000000000000000     
  -2.0133333333333336E-005     0.0000000000000000     
  -1.9933333333333334E-005     0.0000000000000000     
  -1.9733333333333336E-005     0.0000000000000000     
  -1.9533333333333335E-005     0.0000000000000000     
  -1.9333333333333333E-005     0.0000000000000000     
  -1.9133333333333335E-005     0.0000000000000000     
  -1.8933333333333337E-005     0.0000000000000000     
  -1.8733333333333336E-005     0.0000000000000000     
  -1.8533333333333334E-005     0.0000000000000000     
  -1.8333333333333336E-005     0.0000000000000000     
  -1.8133333333333335E-005     0.0000000000000000     
  -1.7933333333333337E-005     0.0000000000000000     
  -1.7733333333333335E-005     0.0000000000000000     
  -1.7533333333333337E-005     0.0000000000000000     
  -1.7333333333333336E-005     0.0000000000000000     
  -1.7133333333333334E-005     0.0000000000000000     
  -1.6933333333333336E-005     0.0000000000000000     
  -1.6733333333333335E-005     0.0000000000000000     
  -1.6533333333333337E-005     0.0000000000000000     
  -1.6333333333333335E-005     0.0000000000000000     
  -1.6133333333333337E-005     0.0000000000000000     
  -1.5933333333333336E-005     0.0000000000000000     
  -1.5733333333333334E-005     0.0000000000000000     
  -1.5533333333333336E-005     0.0000000000000000     
  -1.5333333333333334E-005     0.0000000000000000     
  -1.5133333333333336E-005     0.0000000000000000     
  -1.4933333333333335E-005     0.0000000000000000     
  -1.4733333333333337E-005     0.0000000000000000     
  -1.4533333333333335E-005     0.0000000000000000     
  -1.4333333333333337E-005     0.0000000000000000     
  -1.4133333333333336E-005     0.0000000000000000     
  -1.3933333333333334E-005     0.0000000000000000     
  -1.3733333333333336E-005     0.0000000000000000     
  -1.3533333333333335E-005     0.0000000000000000     
  -1.3333333333333337E-005     0.0000000000000000     
  -1.3133333333333335E-005     0.0000000000000000     
  -1.2933333333333337E-005     0.0000000000000000     
  -1.2733333333333336E-005     0.0000000000000000     
  -1.2533333333333338E-005     0.0000000000000000     
  -1.2333333333333336E-005     0.0000000000000000     
  -1.2133333333333335E-005     0.0000000000000000     
  -1.1933333333333337E-005     0.0000000000000000     
  -1.1733333333333335E-005     0.0000000000000000     
  -1.1533333333333337E-005     0.0000000000000000     
  -1.1333333333333336E-005     0.0000000000000000     
  -1.1133333333333337E-005     0.0000000000000000     
  -1.0933333333333336E-005     0.0000000000000000     
  -1.0733333333333334E-005     0.0000000000000000     
  -1.0533333333333336E-005     0.0000000000000000     
  -1.0333333333333335E-005     0.0000000000000000     
  -1.0133333333333337E-005     0.0000000000000000     
  -9.9333333333333354E-006     0.0000000000000000     
  -9.7333333333333373E-006     0.0000000000000000     
  -9.5333333333333358E-006     0.0000000000000000     
  -9.3333333333333343E-006     0.0000000000000000     
  -9.1333333333333362E-006     0.0000000000000000     
  -8.9333333333333348E-006     0.0000000000000000     
  -8.7333333333333367E-006     0.0000000000000000     
  -8.5333333333333352E-006     0.0000000000000000     
  -8.3333333333333371E-006     0.0000000000000000     
  -8.1333333333333356E-006     0.0000000000000000     
  -7.9333333333333376E-006     0.0000000000000000     
  -7.7333333333333361E-006     0.0000000000000000     
  -7.5333333333333346E-006     0.0000000000000000     
  -7.3333333333333365E-006     0.0000000000000000     
  -7.1333333333333351E-006     0.0000000000000000     
  -6.9333333333333370E-006     0.0000000000000000     
  -6.7333333333333355E-006     0.0000000000000000     
  -6.5333333333333374E-006     0.0000000000000000     
  -6.3333333333333359E-006     0.0000000000000000     
  -6.1333333333333379E-006     0.0000000000000000     
  -5.9333333333333364E-006     0.0000000000000000     
  -5.7333333333333349E-006     0.0000000000000000     
  -5.5333333333333368E-006     0.0000000000000000     
  -5.3333333333333354E-006     0.0000000000000000     
  -5.1333333333333373E-006     0.0000000000000000     
  -4.9333333333333358E-006     0.0000000000000000     
  -4.7333333333333377E-006     0.0000000000000000     
  -4.5333333333333362E-006     0.0000000000000000     
  -4.3333333333333348E-006     0.0000000000000000     
  -4.1333333333333367E-006     0.0000000000000000     
  -3.9333333333333352E-006     0.0000000000000000     
  -3.7333333333333371E-006     0.0000000000000000     
  -3.5333333333333356E-006     0.0000000000000000     
  -3.3333333333333376E-006     0.0000000000000000     
  -3.1333333333333361E-006     0.0000000000000000     
  -2.9333333333333346E-006     0.0000000000000000     
  -2.7333333333333365E-006     0.0000000000000000     
  -2.5333333333333384E-006     0.0000000000000000     
  -2.3333333333333336E-006     0.0000000000000000     
  -2.1333333333333355E-006     0.0000000000000000     
  -1.9333333333333374E-006     0.0000000000000000     
  -1.7333333333333393E-006     0.0000000000000000     
  -1.5333333333333345E-006     0.0000000000000000     
  -1.3333333333333364E-006     0.0000000000000000     
  -1.1333333333333383E-006     0.0000000000000000     
  -9.3333333333333343E-007     0.0000000000000000     
  -7.3333333333333535E-007     0.0000000000000000     
  -5.3333333333333726E-007     0.0000000000000000     
  -3.3333333333333918E-007     0.0000000000000000     
  -1.3333333333333432E-007    -2.1338821674504167E-038
   6.6666666666663770E-008    -5.7273259867753478E-038
   2.6666666666666185E-007    -1.0139309157027563E-037
   4.6666666666666672E-007    -1.4056297097222294E-037
   6.6666666666666480E-007    -1.3905228154457907E-037
   8.6666666666666289E-007    -8.2556394802506710E-038
   1.0666666666666610E-006     3.4004200005386591E-038
   1.2666666666666658E-006     2.2966266169156809E-037
   1.4666666666666639E-006     4.8081523305806385E-037
   1.6666666666666620E-006     7.6031593783319809E-037
   1.8666666666666669E-006     1.0325416390801682E-036
   2.0666666666666649E-006     1.2231806496671382E-036
   2.2666666666666630E-006     1.2678987965775700E-036
   2.4666666666666611E-006     1.0846482386424359E-036
   2.6666666666666660E-006     5.9239679581965064E-037
   2.8666666666666641E-006    -2.7861039820361625E-037
   3.0666666666666622E-006    -1.5705231232500558E-036
   3.2666666666666602E-006    -3.2742704941004006E-036
   3.4666666666666651E-006    -5.3081619894836380E-036
   3.6666666666666632E-006    -7.4874032465516810E-036
   3.8666666666666613E-006    -9.4987885881928869E-036
   4.0666666666666661E-006    -1.0885277861297414E-035
   4.2666666666666642E-006    -1.1051646472165380E-035
   4.4666666666666623E-006    -9.3008838114372296E-036
   4.6666666666666604E-006    -4.9113042198794575E-036
   4.8666666666666652E-006     2.7396029799051517E-036
   5.0666666666666633E-006     1.4004690750001402E-035
   5.2666666666666614E-006     2.8759820996576339E-035
   5.4666666666666663E-006     4.6179548119667999E-035
   5.6666666666666644E-006     6.4533199190797606E-035
   5.8666666666666624E-006     8.1043746292347388E-035
   6.0666666666666605E-006     9.1867982964757101E-035
   6.2666666666666654E-006     9.2258037015532639E-035
   6.4666666666666635E-006     7.6959098573669274E-035
   6.6666666666666616E-006     4.0881127867425246E-035
   6.8666666666666664E-006    -1.9948892471508640E-035
   7.0666666666666645E-006    -1.0719460406899359E-034
   7.2666666666666626E-006    -2.1887110177473370E-034
   7.4666666666666607E-006    -3.4802718899776421E-034
   7.6666666666666655E-006    -4.8166491730992681E-034
   7.8666666666666636E-006    -6.0017054357815257E-034
   8.0666666666666617E-006    -6.7755140814736444E-034
   8.2666666666666598E-006    -6.8276054707818609E-034
   8.4666666666666647E-006    -5.8233535554030141E-034
   8.6666666666666627E-006    -3.4447072165580177E-034
   8.8666666666666608E-006     5.5501941526220983E-035
   9.0666666666666657E-006     6.2845169787973867E-034
   9.2666666666666638E-006     1.3640381345644129E-033
   9.4666666666666619E-006     2.2232435061078938E-033
   9.6666666666666599E-006     3.1317946611309557E-033
   9.8666666666666648E-006     3.9756923411618456E-033
   1.0066666666666663E-005     4.6003239579079003E-033
   1.0266666666666661E-005     4.8148829010016615E-033
   1.0466666666666666E-005     4.4039344840580054E-033
   1.0666666666666664E-005     3.1479459535112539E-033
   1.0866666666666662E-005     8.5418775553989665E-034
   1.1066666666666660E-005    -2.6014856294498429E-033
   1.1266666666666665E-005    -7.2230807086488494E-033
   1.1466666666666663E-005    -1.2836698062038839E-032
   1.1666666666666661E-005    -1.9033345919757298E-032
   1.1866666666666666E-005    -2.5122935629474618E-032
   1.2066666666666664E-005    -3.0113752565911943E-032
   1.2266666666666662E-005    -3.2734361468068749E-032
   1.2466666666666660E-005    -3.1515329745227881E-032
   1.2666666666666665E-005    -2.4944771828192238E-032
   1.2866666666666663E-005    -1.1703725015305640E-032
   1.3066666666666661E-005     9.0260965556102913E-033
   1.3266666666666666E-005     3.7207643506669546E-032
   1.3466666666666664E-005     7.1593201318187223E-032
   1.3666666666666662E-005     1.0943397489841728E-031
   1.3866666666666660E-005     1.4633380051564463E-031
   1.4066666666666665E-005     1.7632787894043523E-031
   1.4266666666666663E-005     1.9225305322740929E-031
   1.4466666666666661E-005     1.8644285501499541E-031
   1.4666666666666666E-005     1.5172997786275539E-031
   1.4866666666666664E-005     8.2677625216285803E-032
   1.5066666666666662E-005    -2.3100537271819212E-032
   1.5266666666666661E-005    -1.6371752819311898E-031
   1.5466666666666665E-005    -3.3209067229233068E-031
   1.5666666666666663E-005    -5.1549884758135625E-031
   1.5866666666666662E-005    -6.9573466924604369E-031
   1.6066666666666660E-005    -8.4987000242416918E-031
   1.6266666666666665E-005    -9.5155261475899870E-031
   1.6466666666666663E-005    -9.7268010386474590E-031
   1.6666666666666661E-005    -8.8528971608450215E-031
   1.6866666666666666E-005    -6.6358781397704417E-031
   1.7066666666666664E-005    -2.8622039067522128E-031
   1.7266666666666662E-005     2.6089015661697915E-031
   1.7466666666666660E-005     9.8062287217347807E-031
   1.7666666666666665E-005     1.8590915236785767E-030
   1.7866666666666663E-005     2.8581202863972302E-030
   1.8066666666666661E-005     3.9060845968219712E-030
   1.8266666666666666E-005     4.8884694880075579E-030
   1.8466666666666664E-005     5.6408201029293178E-030
   1.8666666666666662E-005     5.9480679951608054E-030
   1.8866666666666660E-005     5.5550876323814738E-030
   1.9066666666666665E-005     4.1931918509651139E-030
   1.9266666666666663E-005     1.6256249919894451E-030
   1.9466666666666661E-005    -2.2883914645536827E-030
   1.9666666666666666E-005    -7.5167435772370929E-030
   1.9866666666666664E-005    -1.3776674925648454E-029
   2.0066666666666662E-005    -2.0474403252339954E-029
   2.0266666666666660E-005    -2.6684454519824455E-029
   2.0466666666666665E-005    -3.1191103506300744E-029
   2.0666666666666663E-005    -3.2608482621075916E-029
   2.0866666666666661E-005    -2.9583249920025674E-029
   2.1066666666666659E-005    -2.1064952053967073E-029
   2.1266666666666664E-005    -6.6069448039379461E-030
   2.1466666666666662E-005     1.3360236209525017E-029
   2.1666666666666660E-005     3.7354470532859852E-029
   2.1866666666666665E-005     6.2837256110211582E-029
   2.2066666666666663E-005     8.6429025241949171E-029
   2.2266666666666661E-005     1.0435433532837279E-028
   2.2466666666666659E-005     1.1306885536310907E-028
   2.2666666666666664E-005     1.0995676924009804E-028
   2.2866666666666662E-005     9.3933152473417758E-029
   2.3066666666666660E-005     6.5763044622289604E-029
   2.3266666666666665E-005     2.7933766154296460E-029
   2.3466666666666663E-005    -1.5997821342487642E-029
   2.3666666666666661E-005    -6.2519531836167374E-029
   2.3866666666666660E-005    -1.0949851828395540E-028
   2.4066666666666664E-005    -1.5732324677416570E-028
   2.4266666666666662E-005    -2.0933069788053404E-028
   2.4466666666666661E-005    -2.7101036176060952E-028
   2.4666666666666665E-005    -3.4766369762405828E-028
   2.4866666666666663E-005    -4.4057371185158247E-028
   2.5066666666666662E-005    -5.4227133515523243E-028
   2.5266666666666660E-005    -6.3207677438652871E-028
   2.5466666666666665E-005    -6.7358937581756921E-028
   2.5666666666666663E-005    -6.1600724826479910E-028
   2.5866666666666661E-005    -4.0088985312511056E-028
   2.6066666666666666E-005     2.4900324176858268E-029
   2.6266666666666664E-005     6.9082437844514475E-028
   2.6466666666666662E-005     1.5815328406159771E-027
   2.6666666666666660E-005     2.6176365431916558E-027
   2.6866666666666665E-005     3.6445747451619957E-027
   2.7066666666666663E-005     4.4362012857831475E-027
   2.7266666666666661E-005     4.7184794451281404E-027
   2.7466666666666666E-005     4.2154581289052824E-027
   2.7666666666666664E-005     2.7145905528940314E-027
   2.7866666666666662E-005     1.4214860400109562E-028
   2.8066666666666667E-005    -3.3668021063289023E-027
   2.8266666666666658E-005    -7.4238721417937672E-027
   2.8466666666666663E-005    -1.1389072237423450E-026
   2.8666666666666668E-005    -1.4435091452215214E-026
   2.8866666666666659E-005    -1.5679884686518816E-026
   2.9066666666666664E-005    -1.4377352072482485E-026
   2.9266666666666669E-005    -1.0136893446969112E-026
   2.9466666666666660E-005    -3.1245859861290861E-027
   2.9666666666666665E-005     5.8129376694607857E-027
   2.9866666666666656E-005     1.5160795721955924E-026
   3.0066666666666661E-005     2.2927112844929319E-026
   3.0266666666666666E-005     2.7022439552809492E-026
   3.0466666666666657E-005     2.5788471585537302E-026
   3.0666666666666662E-005     1.8582447542728997E-026
   3.0866666666666667E-005     6.2748692703201421E-027
   3.1066666666666658E-005    -8.5089526280412022E-027
   3.1266666666666663E-005    -2.1563375718004317E-026
   3.1466666666666668E-005    -2.7795372247018444E-026
   3.1666666666666659E-005    -2.2431723603890079E-026
   3.1866666666666664E-005    -2.5915205479597760E-027
   3.2066666666666656E-005     3.1082204349452544E-026
   3.2266666666666660E-005     7.3169166238157932E-026
   3.2466666666666665E-005     1.1309440272752487E-025
   3.2666666666666657E-005     1.3607081475679863E-025
   3.2866666666666661E-005     1.2561222013489490E-025
   3.3066666666666666E-005     6.7533580909113956E-026
   3.3266666666666658E-005    -4.5078612101167100E-026
   3.3466666666666662E-005    -2.0689886369539019E-025
   3.3666666666666667E-005    -3.9673382784613810E-025
   3.3866666666666659E-005    -5.7670978096675683E-025
   3.4066666666666664E-005    -6.9555636019992701E-025
   3.4266666666666668E-005    -6.9666165293575480E-025
   3.4466666666666660E-005    -5.3057349744393883E-025
   3.4666666666666665E-005    -1.7034918767136726E-025
   3.4866666666666656E-005     3.7315521912334125E-025
   3.5066666666666661E-005     1.0399907314859817E-024
   3.5266666666666666E-005     1.7181213022009962E-024
   3.5466666666666657E-005     2.2524365148298181E-024
   3.5666666666666662E-005     2.4677178391559900E-024
   3.5866666666666667E-005     2.2046481100524344E-024
   3.6066666666666658E-005     1.3643367105167767E-024
   3.6266666666666663E-005    -4.6862651853203529E-026
   3.6466666666666668E-005    -1.8833594600674366E-024
   3.6666666666666659E-005    -3.8493363227386697E-024
   3.6866666666666664E-005    -5.5212942736270375E-024
   3.7066666666666669E-005    -6.4098415592885656E-024
   3.7266666666666660E-005    -6.0585294548965349E-024
   3.7466666666666665E-005    -4.1675624174743732E-024
   3.7666666666666656E-005    -7.1993339476642068E-025
   3.7866666666666661E-005     3.9205964948899993E-024
   3.8066666666666666E-005     8.9734679240099684E-024
   3.8266666666666657E-005     1.3296955799149422E-023
   3.8466666666666662E-005     1.5552408523650352E-023
   3.8666666666666667E-005     1.4472863418908071E-023
   3.8866666666666658E-005     9.2046798998866260E-024
   3.9066666666666663E-005    -3.3755003146999746E-025
   3.9266666666666668E-005    -1.3185632537065538E-023
   3.9466666666666659E-005    -2.7195317064333996E-023
   3.9666666666666664E-005    -3.9171421518721271E-023
   3.9866666666666655E-005    -4.5293294532154790E-023
   4.0066666666666660E-005    -4.1838244694911423E-023
   4.0266666666666665E-005    -2.6128267516330416E-023
   4.0466666666666656E-005     2.4525792039543462E-024
   4.0666666666666661E-005     4.1589602048473002E-023
   4.0866666666666666E-005     8.5573611514457995E-023
   4.1066666666666657E-005     1.2548554307579747E-022
   4.1266666666666662E-005     1.5020032804443107E-022
   4.1466666666666667E-005     1.4824488701079474E-022
   4.1666666666666658E-005     1.1035853568389660E-022
   4.1866666666666663E-005     3.2393563330942167E-023
   4.2066666666666668E-005    -8.1998960897652260E-023
   4.2266666666666660E-005    -2.1957921839810242E-022
   4.2466666666666664E-005    -3.5731630144651051E-022
   4.2666666666666656E-005    -4.6432312491630408E-022
   4.2866666666666661E-005    -5.0617016383258690E-022
   4.3066666666666665E-005    -4.5136470246374301E-022
   4.3266666666666657E-005    -2.7923772681231701E-022
   4.3466666666666662E-005     1.2057309795970725E-023
   4.3666666666666666E-005     3.9914354942040315E-022
   4.3866666666666658E-005     8.3049064766778607E-022
   4.4066666666666663E-005     1.2286322048990392E-021
   4.4266666666666667E-005     1.4985962091273228E-021
   4.4466666666666659E-005     1.5425981383576308E-021
   4.4666666666666664E-005     1.2797371639377020E-021
   4.4866666666666655E-005     6.6801917803497145E-022
   4.5066666666666660E-005    -2.7520936126815160E-022
   4.5266666666666665E-005    -1.4591044943038637E-021
   4.5466666666666656E-005    -2.7161372064037974E-021
   4.5666666666666661E-005    -3.8136120088055980E-021
   4.5866666666666666E-005    -4.4816556730830675E-021
   4.6066666666666657E-005    -4.4565866075264556E-021
   4.6266666666666662E-005    -3.5351994936090146E-021
   4.6466666666666667E-005    -1.6321597257379069E-021
   4.6666666666666658E-005     1.1699492334346571E-021
   4.6866666666666663E-005     4.5896366703510494E-021
   4.7066666666666668E-005     8.1455536455715362E-021
   4.7266666666666659E-005     1.1193528410309045E-020
   4.7466666666666664E-005     1.3004274431008073E-020
   4.7666666666666655E-005     1.2877408835732020E-020
   4.7866666666666660E-005     1.0279600462188787E-020
   4.8066666666666665E-005     4.9873360615785953E-021
   4.8266666666666656E-005    -2.7905984057145584E-021
   4.8466666666666661E-005    -1.2337807579773283E-020
   4.8666666666666666E-005    -2.2426633858637059E-020
   4.8866666666666657E-005    -3.1403369118298708E-020
   4.9066666666666662E-005    -3.7367829242120473E-020
   4.9266666666666667E-005    -3.8437774439760743E-020
   4.9466666666666658E-005    -3.3072470960414399E-020
   4.9666666666666663E-005    -2.0414799746350250E-020
   4.9866666666666655E-005    -6.0046567395065807E-022
   5.0066666666666659E-005     2.5021576988398333E-020
   5.0266666666666664E-005     5.3809901841815874E-020
   5.0466666666666656E-005     8.1932905295276555E-020
   5.0666666666666660E-005     1.0467329586883837E-019
   5.0866666666666665E-005     1.1693025139049599E-019
   5.1066666666666657E-005     1.1388700221812512E-019
   5.1266666666666661E-005     9.1784749175405290E-020
   5.1466666666666666E-005     4.8721674787106385E-020
   5.1666666666666658E-005    -1.4619945575431668E-020
   5.1866666666666662E-005    -9.4421884978755305E-020
   5.2066666666666667E-005    -1.8345473996551592E-019
   5.2266666666666659E-005    -2.7116983807534274E-019
   5.2466666666666664E-005    -3.4423028133575334E-019
   5.2666666666666655E-005    -3.8752721519285748E-019
   5.2866666666666660E-005    -3.8569402785907511E-019
   5.3066666666666665E-005    -3.2508733155792733E-019
   5.3266666666666656E-005    -1.9614860194696640E-019
   5.3466666666666661E-005     4.0108598497761164E-021
   5.3666666666666666E-005     2.6904457843714673E-019
   5.3866666666666657E-005     5.8116443217662753E-019
   5.4066666666666662E-005     9.0972961877063992E-019
   5.4266666666666667E-005     1.2111439976248829E-018
   5.4466666666666658E-005     1.4306058708807409E-018
   5.4666666666666663E-005     1.5062018036643855E-018
   5.4866666666666668E-005     1.3756744607623194E-018
   5.5066666666666659E-005     9.8588741398536119E-019
   5.5266666666666664E-005     3.0455546798344235E-019
   5.5466666666666655E-005    -6.6676940546852864E-019
   5.5666666666666660E-005    -1.8801265248222971E-018
   5.5866666666666665E-005    -3.2312873847340310E-018
   5.6066666666666656E-005    -4.5553828950030298E-018
   5.6266666666666661E-005    -5.6309476475322555E-018
   5.6466666666666666E-005    -6.1949987985097148E-018
   5.6666666666666657E-005    -5.9708311981466192E-018
   5.6866666666666662E-005    -4.7086276160555225E-018
   5.7066666666666667E-005    -2.2367542789862655E-018
   5.7266666666666658E-005     1.4810941837364103E-018
   5.7466666666666663E-005     6.2905174797442757E-018
   5.7666666666666654E-005     1.1802938417303808E-017
   5.7866666666666659E-005     1.7375747675482774E-017
   5.8066666666666664E-005     2.2127882096626442E-017
   5.8266666666666655E-005     2.5000701870719033E-017
   5.8466666666666660E-005     2.4869762488474339E-017
   5.8666666666666665E-005     2.0706287841531583E-017
   5.8866666666666656E-005     1.1778417475225286E-017
   5.9066666666666661E-005    -2.1277546217186217E-018
   5.9266666666666666E-005    -2.0497212978625130E-017
   5.9466666666666657E-005    -4.1923121483298246E-017
   5.9666666666666662E-005    -6.4034426880449125E-017
   5.9866666666666667E-005    -8.3555121713092129E-017
   6.0066666666666659E-005    -9.6528073192447079E-017
   6.0266666666666663E-005    -9.8720148137826906E-017
   6.0466666666666655E-005    -8.6201378371767671E-017
   6.0666666666666660E-005    -5.6061080754817781E-017
   6.0866666666666664E-005    -7.1907629558041123E-018
   6.1066666666666656E-005     5.8967945628561830E-017
   6.1266666666666661E-005     1.3783757886246369E-016
   6.1466666666666665E-005     2.2142114897118274E-016
   6.1666666666666657E-005     2.9845523533860493E-016
   6.1866666666666662E-005     3.5510802816408394E-016
   6.2066666666666666E-005     3.7627887552687633E-016
   6.2266666666666658E-005     3.4748216407017387E-016
   6.2466666666666663E-005     2.5720647781277421E-016
   6.2666666666666668E-005     9.9537898891396829E-017
   6.2866666666666659E-005    -1.2326251088549153E-016
   6.3066666666666664E-005    -3.9861743721679758E-016
   6.3266666666666655E-005    -7.0236639024772547E-016
   6.3466666666666660E-005    -9.9880695772128604E-016
   6.3666666666666665E-005    -1.2424139509889780E-015
   6.3866666666666656E-005    -1.3814687029617564E-015
   6.4066666666666661E-005    -1.3636296596969888E-015
   6.4266666666666666E-005    -1.1432093463274360E-015
   6.4466666666666657E-005    -6.8962235603981089E-016
   6.4666666666666662E-005     3.8386474378380823E-018
   6.4866666666666667E-005     9.1202091485767609E-016
   6.5066666666666658E-005     1.9720451671385170E-015
   6.5266666666666663E-005     3.0809523260801139E-015
   6.5466666666666654E-005     4.0981749447450110E-015
   6.5666666666666659E-005     4.8538553886379350E-015
   6.5866666666666664E-005     5.1635501159118941E-015
   6.6066666666666655E-005     4.8491365680887813E-015
   6.6266666666666660E-005     3.7649000907689131E-015
   6.6466666666666665E-005     1.8267982866839545E-015
   6.6666666666666656E-005    -9.5808214301289132E-016
   6.6866666666666661E-005    -4.4656949172621266E-015
   6.7066666666666666E-005    -8.4372748588093516E-015
   6.7266666666666657E-005    -1.2474282166301340E-014
   6.7466666666666662E-005    -1.6050354472688273E-014
   6.7666666666666667E-005    -1.8543604423260779E-014
   6.7866666666666658E-005    -1.9290909405371252E-014
   6.8066666666666663E-005    -1.7663482980954937E-014
   6.8266666666666655E-005    -1.3160108650067150E-014
   6.8466666666666659E-005    -5.5110195480180795E-015
   6.8666666666666664E-005     5.2178817737641003E-015
   6.8866666666666656E-005     1.8533933001069029E-014
   6.9066666666666660E-005     3.3455341632866037E-014
   6.9266666666666665E-005     4.8494062633791871E-014
   6.9466666666666657E-005     6.1699451971153341E-014
   6.9666666666666661E-005     7.0774949215059862E-014
   6.9866666666666666E-005     7.3274245286809869E-014
   7.0066666666666658E-005     6.6875121434474549E-014
   7.0266666666666662E-005     4.9718519909815531E-014
   7.0466666666666654E-005     2.0788373870624446E-014
   7.0666666666666659E-005    -1.9704720575488763E-014
   7.0866666666666664E-005    -6.9984321885829121E-014
   7.1066666666666655E-005    -1.2647038093432234E-013
   7.1266666666666660E-005    -1.8370336718823155E-013
   7.1466666666666665E-005    -2.3448802036370175E-013
   7.1666666666666656E-005    -2.7030293151333873E-013
   7.1866666666666661E-005    -2.8200177111005476E-013
   7.2066666666666666E-005    -2.6080193235057669E-013
   7.2266666666666657E-005    -1.9951897664398366E-013
   7.2466666666666662E-005    -9.3960151887739068E-014
   7.2666666666666667E-005     5.5653324017388567E-014
   7.2866666666666658E-005     2.4340883583891249E-013
   7.3066666666666663E-005     4.5677410421759990E-013
   7.3266666666666654E-005     6.7623744061037772E-013
   7.3466666666666659E-005     8.7572711669064995E-013
   7.3666666666666664E-005     1.0239818975382731E-012
   7.3866666666666655E-005     1.0869743690203326E-012
   7.4066666666666660E-005     1.0313855889135248E-012
   7.4266666666666665E-005     8.2899518413087625E-013
   7.4466666666666656E-005     4.6170174888143789E-013
   7.4666666666666661E-005    -7.3274509561089413E-014
   7.4866666666666666E-005    -7.5860216545986514E-013
   7.5066666666666657E-005    -1.5531723043110679E-012
   7.5266666666666662E-005    -2.3903286034548943E-012
   7.5466666666666653E-005    -3.1787439434133313E-012