  -3.3333333333333335E-005     0.0000000000000000     
  -3.3133333333333337E-005     0.0000000000000000     
  -3.2933333333333332E-005     0.0000000000000000     
  -3.2733333333333334E-005     0.0000000000000000     
  -3.2533333333333336E-005     0.0000000000000000     
  -3.2333333333333338E-005     0.0000000000000000     
  -3.2133333333333333E-005     0.0000000000000000     
  -3.1933333333333335E-005     0.0000000000000000     
  -3.1733333333333337E-005     0.0000000000000000     
  -3.1533333333333332E-005     0.0000000000000000     
  -3.1333333333333334E-005     0.0000000000000000     
  -3.1133333333333336E-005     0.0000000000000000     
  -3.0933333333333338E-005     0.0000000000000000     
  -3.0733333333333333E-005     0.0000000000000000     
  -3.0533333333333335E-005     0.0000000000000000     
  -3.0333333333333337E-005     0.0000000000000000     
  -3.0133333333333335E-005     0.0000000000000000     
  -2.9933333333333334E-005     0.0000000000000000     
  -2.9733333333333336E-005     0.0000000000000000     
  -2.9533333333333334E-005     0.0000000000000000     
  -2.9333333333333336E-005     0.0000000000000000     
  -2.9133333333333334E-005     0.0000000000000000     
  -2.8933333333333336E-005     0.0000000000000000     
  -2.8733333333333335E-005     0.0000000000000000     
  -2.8533333333333333E-005     0.0000000000000000     
  -2.8333333333333335E-005     0.0000000000000000     
  -2.8133333333333337E-005     0.0000000000000000     
  -2.7933333333333336E-005     0.0000000000000000     
  -2.7733333333333334E-005     0.0000000000000000     
  -2.7533333333333336E-005     0.0000000000000000     
  -2.7333333333333335E-005     0.0000000000000000     
  -2.7133333333333333E-005     0.0000000000000000     
  -2.6933333333333335E-005     0.0000000000000000     
  -2.6733333333333337E-005     0.0000000000000000     
  -2.6533333333333336E-005     0.0000000000000000     
  -2.6333333333333334E-005     0.0000000000000000     
  -2.6133333333333336E-005     0.0000000000000000     
  -2.5933333333333335E-005     0.0000000000000000     
  -2.5733333333333333E-005     0.0000000000000000     
  -2.5533333333333335E-005     0.0000000000000000     
  -2.5333333333333337E-005     0.0000000000000000     
  -2.5133333333333336E-005     0.0000000000000000     
  -2.4933333333333334E-005     0.0000000000000000     
  -2.4733333333333336E-005     0.0000000000000000     
  -2.4533333333333334E-005     0.0000000000000000     
  -2.4333333333333333E-005     0.0000000000000000     
  -2.4133333333333335E-005     0.0000000000000000     
  -2.3933333333333337E-005     0.0000000000000000     
  -2.3733333333333335E-005     0.0000000000000000     
  -2.3533333333333334E-005     0.0000000000000000     
  -2.3333333333333336E-005     0.0000000000000000     
  -2.3133333333333338E-005     0.0000000000000000     
  -2.2933333333333336E-005     0.0000000000000000     
  -2.2733333333333335E-005     0.0000000000000000     
  -2.2533333333333337E-005     0.0000000000000000     
  -2.2333333333333335E-005     0.0000000000000000     
  -2.2133333333333334E-005     0.0000000000000000     
  -2.1933333333333336E-005     0.0000000000000000     
  -2.1733333333333338E-005     0.0000000000000000     
  -2.1533333333333336E-005     0.0000000000000000     
  -2.1333333333333335E-005     0.0000000000000000     
  -2.1133333333333337E-005     0.0000000000000000     
  -2.0933333333333335E-005     0.0000000000000000     
  -2.0733333333333334E-005     0.0000000000000000     
  -2.0533333333333336E-005     0.0000000000000000     
  -2.0333333333333337E-005     0.0000000000000000     
  -2.0133333333333336E-005     0.0000000000000000     
  -1.9933333333333334E-005     0.0000000000000000     
  -1.9733333333333336E-005     0.0000000000000000     
  -1.9533333333333335E-005     0.0000000000000000     
  -1.9333333333333333E-005     0.0000000000000000     
  -1.9133333333333335E-005     0.0000000000000000     
  -1.8933333333333337E-005     0.0000000000000000     
  -1.8733333333333336E-005     0.0000000000000000     
  -1.8533333333333334E-005     0.0000000000000000     
  -1.8333333333333336E-005     0.0000000000000000     
  -1.8133333333333335E-005     0.0000000000000000     
  -1.7933333333333337E-005     0.0000000000000000     
  -1.7733333333333335E-005     0.0000000000000000     
  -1.7533333333333337E-005     0.0000000000000000     
  -1.7333333333333336E-005     0.0000000000000000     
  -1.7133333333333334E-005     0.0000000000000000     
  -1.6933333333333336E-005     0.0000000000000000     
  -1.6733333333333335E-005     0.0000000000000000     
  -1.6533333333333337E-005     0.0000000000000000     
  -1.6333333333333335E-005     0.0000000000000000     
  -1.6133333333333337E-005     0.0000000000000000     
  -1.5933333333333336E-005     0.0000000000000000     
  -1.5733333333333334E-005     0.0000000000000000     
  -1.5533333333333336E-005     0.0000000000000000     
  -1.5333333333333334E-005     0.0000000000000000     
  -1.5133333333333336E-005     0.0000000000000000     
  -1.4933333333333335E-005     0.0000000000000000     
  -1.4733333333333337E-005     0.0000000000000000     
  -1.4533333333333335E-005     0.0000000000000000     
  -1.4333333333333337E-005     0.0000000000000000     
  -1.4133333333333336E-005     0.0000000000000000     
  -1.3933333333333334E-005     0.0000000000000000     
  -1.3733333333333336E-005     0.0000000000000000     
  -1.3533333333333335E-005     0.0000000000000000     
  -1.3333333333333337E-005     0.0000000000000000     
  -1.3133333333333335E-005     0.0000000000000000     
  -1.2933333333333337E-005     0.0000000000000000     
  -1.2733333333333336E-005     0.0000000000000000     
  -1.2533333333333338E-005     0.0000000000000000     
  -1.2333333333333336E-005     0.0000000000000000     
  -1.2133333333333335E-005     0.0000000000000000     
  -1.1933333333333337E-005     0.0000000000000000     
  -1.1733333333333335E-005     0.0000000000000000     
  -1.1533333333333337E-005     0.0000000000000000     
  -1.1333333333333336E-005     0.0000000000000000     
  -1.1133333333333337E-005     0.0000000000000000     
  -1.0933333333333336E-005     0.0000000000000000     
  -1.0733333333333334E-005     0.0000000000000000     
  -1.0533333333333336E-005     0.0000000000000000     
  -1.0333333333333335E-005     0.0000000000000000     
  -1.0133333333333337E-005     0.0000000000000000     
  -9.9333333333333354E-006     0.0000000000000000     
  -9.7333333333333373E-006     0.0000000000000000     
  -9.5333333333333358E-006     0.0000000000000000     
  -9.3333333333333343E-006     0.0000000000000000     
  -9.1333333333333362E-006     0.0000000000000000     
  -8.9333333333333348E-006     0.0000000000000000     
  -8.7333333333333367E-006     0.0000000000000000     
  -8.5333333333333352E-006     0.0000000000000000     
  -8.3333333333333371E-006     0.0000000000000000     
  -8.1333333333333356E-006     0.0000000000000000     
  -7.9333333333333376E-006     0.0000000000000000     
  -7.7333333333333361E-006     0.0000000000000000     
  -7.5333333333333346E-006     0.0000000000000000     
  -7.3333333333333365E-006     0.0000000000000000     
  -7.1333333333333351E-006     0.0000000000000000     
  -6.9333333333333370E-006     0.0000000000000000     
  -6.7333333333333355E-006     0.0000000000000000     
  -6.5333333333333374E-006     0.0000000000000000     
  -6.3333333333333359E-006     0.0000000000000000     
  -6.1333333333333379E-006     0.0000000000000000     
  -5.9333333333333364E-006     0.0000000000000000     
  -5.7333333333333349E-006     0.0000000000000000     
  -5.5333333333333368E-006     0.0000000000000000     
  -5.3333333333333354E-006     0.0000000000000000     
  -5.1333333333333373E-006     0.0000000000000000     
  -4.9333333333333358E-006     0.0000000000000000     
  -4.7333333333333377E-006     0.0000000000000000     
  -4.5333333333333362E-006     0.0000000000000000     
  -4.3333333333333348E-006     0.0000000000000000     
  -4.1333333333333367E-006     0.0000000000000000     
  -3.9333333333333352E-006     0.0000000000000000     
  -3.7333333333333371E-006     0.0000000000000000     
  -3.5333333333333356E-006     0.0000000000000000     
  -3.3333333333333376E-006     0.0000000000000000     
  -3.1333333333333361E-006     0.0000000000000000     
  -2.9333333333333346E-006     0.0000000000000000     
  -2.7333333333333365E-006     0.0000000000000000     
  -2.5333333333333384E-006     0.0000000000000000     
  -2.3333333333333336E-006     0.0000000000000000     
  -2.1333333333333355E-006     0.0000000000000000     
  -1.9333333333333374E-006     0.0000000000000000     
  -1.7333333333333393E-006     0.0000000000000000     
  -1.5333333333333345E-006     0.0000000000000000     
  -1.3333333333333364E-006     0.0000000000000000     
  -1.1333333333333383E-006     0.0000000000000000     
  -9.3333333333333343E-007     0.0000000000000000     
  -7.3333333333333535E-007     0.0000000000000000     
  -5.3333333333333726E-007     0.0000000000000000     
  -3.3333333333333918E-007     0.0000000000000000     
  -1.3333333333333432E-007     0.0000000000000000     
   6.6666666666663770E-008     0.0000000000000000     
   2.6666666666666185E-007     0.0000000000000000     
   4.6666666666666672E-007     0.0000000000000000     
   6.6666666666666480E-007     0.0000000000000000     
   8.6666666666666289E-007     0.0000000000000000     
   1.0666666666666610E-006     0.0000000000000000     
   1.2666666666666658E-006     0.0000000000000000     
   1.4666666666666639E-006     0.0000000000000000     
   1.6666666666666620E-006     0.0000000000000000     
   1.8666666666666669E-006     0.0000000000000000     
   2.0666666666666649E-006     8.2334979555794446E-037
   2.2666666666666630E-006     1.9441151232406636E-036
   2.4666666666666611E-006     3.2414515011257522E-036
   2.6666666666666660E-006     4.4459583353534208E-036
   2.8666666666666641E-006     3.2397973859976878E-036
   3.0666666666666622E-006     2.2649527605619237E-035
   3.2666666666666602E-006     5.5026744491069968E-035
   3.4666666666666651E-006     1.1063197225187614E-034
   3.6666666666666632E-006     1.8576144371502678E-034
   3.8666666666666613E-006     2.6926344256853127E-034
   4.0666666666666661E-006     3.4614166850839642E-034
   4.2666666666666642E-006     3.7310091971941036E-034
   4.4666666666666623E-006     3.0274248595265968E-034
   4.6666666666666604E-006     1.0832984003418762E-034
   4.8666666666666652E-006    -2.2738053293098509E-034
   5.0666666666666633E-006    -6.9371845031525376E-034
   5.2666666666666614E-006    -1.2470950892633154E-033
   5.4666666666666663E-006    -1.8084817120217732E-033
   5.6666666666666644E-006    -2.2381544682770822E-033
   5.8666666666666624E-006    -2.3627765222604225E-033
   6.0666666666666605E-006    -1.9924702714834700E-033
   6.2666666666666654E-006    -9.4096522807599418E-034
   6.4666666666666635E-006     8.7452417515110686E-034
   6.6666666666666616E-006     3.4161349896513588E-033
   6.8666666666666664E-006     6.4589101982785119E-033
   7.0666666666666645E-006     9.5373271303065661E-033
   7.2666666666666626E-006     1.2012542074946040E-032
   7.4666666666666607E-006     1.3016262170966636E-032
   7.6666666666666655E-006     1.1609823587826079E-032
   7.8666666666666636E-006     7.0176851113617326E-033
   8.0666666666666617E-006    -1.2309616129692718E-033
   8.2666666666666598E-006    -1.3050117877638257E-032
   8.4666666666666647E-006    -2.7528049968502805E-032
   8.6666666666666627E-006    -4.2783101374695968E-032
   8.8666666666666608E-006    -5.6012587935326197E-032
   9.0666666666666657E-006    -6.3653836065600690E-032
   9.2666666666666638E-006    -6.1809597101123849E-032
   9.4666666666666619E-006    -4.6895862234635446E-032
   9.6666666666666599E-006    -1.6492187211404632E-032
   9.8666666666666648E-006     2.9796759943061574E-032
   1.0066666666666663E-005     8.9452234258944811E-032
   1.0266666666666661E-005     1.5652406700337497E-031
   1.0466666666666666E-005     2.2142521424716144E-031
   1.0666666666666664E-005     2.7136644439015157E-031
   1.0866666666666662E-005     2.9156628037400386E-031
   1.1066666666666660E-005     2.6709937638677965E-031
   1.1266666666666665E-005     1.8541713039941139E-031
   1.1466666666666663E-005     3.9279737357373902E-032
   1.1666666666666661E-005    -1.7023799535713021E-031
   1.1866666666666666E-005    -4.3106285326292118E-031
   1.2066666666666664E-005    -7.1828507075357426E-031
   1.2266666666666662E-005    -9.9367208198173031E-031
   1.2466666666666660E-005    -1.2069521783226090E-030
   1.2666666666666665E-005    -1.2993709547774783E-030
   1.2866666666666663E-005    -1.2097226774481751E-030
   1.3066666666666661E-005    -8.8295894588569172E-031
   1.3266666666666666E-005    -2.8115781862487388E-031
   1.3466666666666664E-005     6.0377513492415371E-031
   1.3666666666666662E-005     1.7368431204585969E-030
   1.3866666666666660E-005     3.0279801604865314E-030
   1.4066666666666665E-005     4.3239482001777012E-030
   1.4266666666666663E-005     5.4073815950255098E-030
   1.4466666666666661E-005     6.0066429727018280E-030
   1.4666666666666666E-005     5.8199895161189393E-030
   1.4866666666666664E-005     4.5564606066121574E-030
   1.5066666666666662E-005     1.9936705805200381E-030
   1.5266666666666661E-005    -1.9508340617433049E-030
   1.5466666666666665E-005    -7.1426489888167165E-030
   1.5666666666666663E-005    -1.3161212414631363E-029
   1.5866666666666662E-005    -1.9256121659464120E-029
   1.6066666666666660E-005    -2.4350006246210074E-029
   1.6266666666666665E-005    -2.7108441978550229E-029
   1.6466666666666663E-005    -2.6092002357744484E-029
   1.6666666666666661E-005    -1.9994238824548835E-029
   1.6866666666666666E-005    -7.9521188490754407E-030
   1.7066666666666664E-005     1.0106001410290519E-029
   1.7266666666666662E-005     3.3132648529565207E-029
   1.7466666666666660E-005     5.8730613745387908E-029
   1.7666666666666665E-005     8.3105923400875138E-029
   1.7866666666666663E-005     1.0128513725781083E-028
   1.8066666666666661E-005     1.0765159961553665E-028
   1.8266666666666666E-005     9.6808066342308576E-029
   1.8466666666666664E-005     6.4706118342934194E-029
   1.8666666666666662E-005     9.9058062587861576E-030
   1.8866666666666660E-005    -6.5246022710187774E-029
   1.9066666666666665E-005    -1.5378484402090240E-028
   1.9266666666666663E-005    -2.4392750154839872E-028
   1.9466666666666661E-005    -3.1974520048310216E-028
   1.9666666666666666E-005    -3.6285290524233278E-028
   1.9866666666666664E-005    -3.5509578905707570E-028
   2.0066666666666662E-005    -2.8200768655842799E-028
   2.0266666666666660E-005    -1.3659782112306640E-028
   2.0466666666666665E-005     7.7164537855999888E-029
   2.0666666666666663E-005     3.4191029487881737E-028
   2.0866666666666661E-005     6.2620822510473775E-028
   2.1066666666666659E-005     8.8625807140359090E-028
   2.1266666666666664E-005     1.0702142330067099E-027
   2.1466666666666662E-005     1.1249923991534467E-027
   2.1666666666666660E-005     1.0049376301401239E-027
   2.1866666666666665E-005     6.8127475111239787E-028
   2.2066666666666663E-005     1.5094167790343859E-028
   2.2266666666666661E-005    -5.5673285421814453E-028
   2.2466666666666659E-005    -1.3769154951624662E-027
   2.2666666666666664E-005    -2.2107665090703527E-027
   2.2866666666666662E-005    -2.9320370954860889E-027
   2.3066666666666660E-005    -3.3986084541744686E-027
   2.3266666666666665E-005    -3.4682238883162674E-027
   2.3466666666666663E-005    -3.0172021028128814E-027
   2.3666666666666661E-005    -1.9607026095331474E-027
   2.3866666666666660E-005    -2.7306260863522426E-028
   2.4066666666666664E-005     1.9932546774531805E-027
   2.4266666666666662E-005     4.6916346780053045E-027
   2.4466666666666661E-005     7.5701596173935996E-027
   2.4666666666666665E-005     1.0268076239201104E-026
   2.4866666666666663E-005     1.2323782276588952E-026
   2.5066666666666662E-005     1.3199394770224942E-026
   2.5266666666666660E-005     1.2327493928777775E-026
   2.5466666666666665E-005     9.1847984233816155E-027
   2.5666666666666663E-005     3.3944353491709703E-027
   2.5866666666666661E-005    -5.1473551547940120E-027
   2.6066666666666666E-005    -1.6132717038762921E-026
   2.6266666666666664E-005    -2.8714811202468910E-026
   2.6466666666666662E-005    -4.1424281750464805E-026
   2.6666666666666660E-005    -5.2168998687882529E-026
   2.6866666666666665E-005    -5.8356447686911001E-026
   2.7066666666666663E-005    -5.7167948614509860E-026
   2.7266666666666661E-005    -4.5992562926648041E-026
   2.7466666666666666E-005    -2.2995081223782678E-026
   2.7666666666666664E-005     1.2247729614201033E-026
   2.7866666666666662E-005     5.8149556588565147E-026
   2.8066666666666667E-005     1.1069394829674390E-025
   2.8266666666666658E-005     1.6333973944612267E-025
   2.8466666666666663E-005     2.0738105492370654E-025
   2.8666666666666668E-005     2.3283441623966442E-025
   2.8866666666666659E-005     2.2983376191952670E-025
   2.9066666666666664E-005     1.9040013368553219E-025
   2.9266666666666669E-005     1.1033410446444668E-025
   2.9466666666666660E-005    -9.1136214452409076E-027
   2.9666666666666665E-005    -1.6017797261204521E-025
   2.9866666666666656E-005    -3.2846666792492683E-025
   3.0066666666666661E-005    -4.9401437974095653E-025
   3.0266666666666666E-005    -6.3350870291499463E-025
   3.0466666666666657E-005    -7.2343253522294820E-025
   3.0666666666666662E-005    -7.4361066040617674E-025
   3.0866666666666667E-005    -6.8046757114673183E-025
   3.1066666666666658E-005    -5.2925649416267235E-025
   3.1266666666666663E-005    -2.9466447117427224E-025
   3.1466666666666668E-005     1.0463404824532835E-026
   3.1666666666666659E-005     3.6804766523677794E-025
   3.1866666666666664E-005     7.5856292721896210E-025
   3.2066666666666656E-005     1.1644525705539347E-024
   3.2266666666666660E-005     1.5717165081934155E-024
   3.2466666666666665E-005     1.9684002433720721E-024
   3.2666666666666657E-005     2.3393447291123380E-024
   3.2866666666666661E-005     2.6576244663895966E-024
   3.3066666666666666E-005     2.8744269117562610E-024
   3.3266666666666658E-005     2.9104210571396853E-024
   3.3466666666666662E-005     2.6525769398875400E-024
   3.3666666666666667E-005     1.9605110426741830E-024
   3.3866666666666659E-005     6.8550410289992196E-025
   3.4066666666666664E-005    -1.2967859595570225E-024
   3.4266666666666668E-005    -4.0420037659253235E-024
   3.4466666666666660E-005    -7.4869234458542945E-024
   3.4666666666666665E-005    -1.1402657007694059E-023
   3.4866666666666656E-005    -1.5362932022825317E-023
   3.5066666666666661E-005    -1.8739692148390930E-023
   3.5266666666666666E-005    -2.0736420584084715E-023
   3.5466666666666657E-005    -2.0465076098515843E-023
   3.5666666666666662E-005    -1.7065790838662550E-023
   3.5866666666666667E-005    -9.8605349121828491E-024
   3.6066666666666658E-005     1.4761035096446211E-024
   3.6266666666666663E-005     1.6752157097686591E-023
   3.6466666666666668E-005     3.5126212216507582E-023
   3.6666666666666659E-005     5.5034464534185932E-023
   3.6866666666666664E-005     7.4199228070467962E-023
   3.7066666666666669E-005     8.9734171213676721E-023
   3.7266666666666660E-005     9.8352552333863176E-023
   3.7466666666666665E-005     9.6675370940490888E-023
   3.7666666666666656E-005     8.1627950147595956E-023
   3.7866666666666661E-005     5.0905831613523310E-023
   3.8066666666666666E-005     3.4838665316806376E-024
   3.8266666666666657E-005    -5.9866395350845673E-023
   3.8466666666666662E-005    -1.3609796892687815E-022
   3.8666666666666667E-005    -2.1951214628849690E-022
   3.8866666666666658E-005    -3.0156920521409688E-022
   3.9066666666666663E-005    -3.7099174166393230E-022
   3.9266666666666668E-005    -4.1427892504878660E-022
   3.9466666666666659E-005    -4.1674622952482826E-022
   3.9666666666666664E-005    -3.6416886476201404E-022
   3.9866666666666655E-005    -2.4503486366359614E-022
   4.0066666666666660E-005    -5.3294931574864974E-023
   4.0266666666666665E-005     2.0865557745358119E-022
   4.0466666666666656E-005     5.2719798963506026E-022
   4.0666666666666661E-005     8.7550262177936457E-022
   4.0866666666666666E-005     1.2130133143337405E-021
   4.1066666666666657E-005     1.4870717212302874E-021
   4.1266666666666662E-005     1.6371908660212403E-021
   4.1466666666666667E-005     1.6021590804550877E-021
   4.1666666666666658E-005     1.3296810206980754E-021
   4.1866666666666663E-005     7.8766890483878665E-022
   4.2066666666666668E-005    -2.4299863065149069E-023
   4.2266666666666660E-005    -1.0653452171732944E-021
   4.2466666666666664E-005    -2.2477140747513594E-021
   4.2666666666666656E-005    -3.4374257758529664E-021
   4.2866666666666661E-005    -4.4627480529583386E-021
   4.3066666666666665E-005    -5.1311229125982561E-021
   4.3266666666666657E-005    -5.2538243320367007E-021
   4.3466666666666662E-005    -4.6760802755371086E-021
   4.3666666666666666E-005    -3.3089100602680340E-021
   4.3866666666666658E-005    -1.1578359650015137E-021
   4.4066666666666663E-005     1.6568587208666616E-021
   4.4266666666666667E-005     4.8932414396232041E-021
   4.4466666666666659E-005     8.1978090036237264E-021
   4.4666666666666664E-005     1.1133956865921022E-020
   4.4866666666666655E-005     1.3227531609247129E-020
   4.5066666666666660E-005     1.4025304496995476E-020
   4.5266666666666665E-005     1.3159715723714852E-020
   4.5466666666666656E-005     1.0411612510279855E-020
   4.5666666666666661E-005     5.7623550201331985E-021
   4.5866666666666666E-005    -5.7240570222532943E-022
   4.6066666666666657E-005    -8.1327307304898303E-021
   4.6266666666666662E-005    -1.6230695641445425E-020
   4.6466666666666667E-005    -2.3992341355357890E-020
   4.6666666666666658E-005    -3.0422074417869394E-020
   4.6866666666666663E-005    -3.4484726759983841E-020
   4.7066666666666668E-005    -3.5200347849767314E-020
   4.7266666666666659E-005    -3.1747750902933529E-020
   4.7466666666666664E-005    -2.3573980220274991E-020
   4.7666666666666655E-005    -1.0507857882607240E-020
   4.7866666666666660E-005     7.1256682230684962E-021
   4.8066666666666665E-005     2.8397200901824938E-020
   4.8266666666666656E-005     5.1684380478504175E-020
   4.8466666666666661E-005     7.4625721010953820E-020
   4.8666666666666666E-005     9.4148430700472638E-020
   4.8866666666666657E-005     1.0660770296773337E-019
   4.9066666666666662E-005     1.0807404862454554E-019
   4.9266666666666667E-005     9.4793851298114209E-020
   4.9466666666666658E-005     6.3824163927689104E-020
   4.9666666666666663E-005     1.3804991726307939E-020
   4.9866666666666655E-005    -5.4214199290898238E-020
   5.0066666666666659E-005    -1.3602711169856632E-019
   5.0266666666666664E-005    -2.2377773980064171E-019
   5.0466666666666656E-005    -3.0591863578353560E-019
   5.0666666666666660E-005    -3.6780557502836819E-019
   5.0866666666666665E-005    -3.9305800326232844E-019
   5.1066666666666657E-005    -3.6571348016285673E-019
   5.1266666666666661E-005    -2.7305842066077201E-019
   5.1466666666666666E-005    -1.0884728801387216E-019
   5.1666666666666658E-005     1.2354937650153946E-019
   5.1866666666666662E-005     4.0866475592149027E-019
   5.2066666666666667E-005     7.1778297801316926E-019
   5.2266666666666659E-005     1.0097290339858240E-018
   5.2466666666666664E-005     1.2340400467876210E-018
   5.2666666666666655E-005     1.3366448741371939E-018
   5.2866666666666660E-005     1.2677509654716070E-018
   5.3066666666666665E-005     9.9115500352367544E-019
   5.3266666666666656E-005     4.9371407063690889E-019
   5.3466666666666661E-005    -2.0663991460173544E-019
   5.3666666666666666E-005    -1.0561163921596086E-018
   5.3866666666666657E-005    -1.9651437345901910E-018
   5.4066666666666662E-005    -2.8144547372514624E-018
   5.4266666666666667E-005    -3.4675134172717715E-018
   5.4466666666666658E-005    -3.7885368363296199E-018
   5.4666666666666663E-005    -3.6641826389414605E-018
   5.4866666666666668E-005    -3.0258581135822522E-018
   5.5066666666666659E-005    -1.8688357162561014E-018
   5.5266666666666664E-005    -2.6411975186515914E-019
   5.5466666666666655E-005     1.6404955066905587E-018
   5.5666666666666660E-005     3.6324524042342327E-018
   5.5866666666666665E-005     5.4597853672312516E-018
   5.6066666666666656E-005     6.8675330324622787E-018
   5.6266666666666661E-005     7.6402810248062544E-018
   5.6466666666666666E-005     7.6436658478728214E-018
   5.6666666666666657E-005     6.8563024012856462E-018
   5.6866666666666662E-005     5.3837430671095581E-018
   5.7066666666666667E-005     3.4478957950693107E-018
   5.7266666666666658E-005     1.3490339717617069E-018
   5.7466666666666663E-005    -5.9729016312198395E-019
   5.7666666666666654E-005    -2.1400215034076300E-018
   5.7866666666666659E-005    -3.1748114216168199E-018
   5.8066666666666664E-005    -3.8099347580054479E-018
   5.8266666666666655E-005    -4.3954673759006031E-018
   5.8466666666666660E-005    -5.4974489684723224E-018
   5.8666666666666665E-005    -7.8053068657330336E-018
   5.8866666666666656E-005    -1.1971872686624900E-017
   5.9066666666666661E-005    -1.8399729445013193E-017
   5.9266666666666666E-005    -2.7003549324810004E-017
   5.9466666666666657E-005    -3.6992837173629032E-017
   5.9666666666666662E-005    -4.6729705895443829E-017
   5.9866666666666667E-005    -5.3718898998039182E-017
   6.0066666666666659E-005    -5.4779146019985151E-017
   6.0266666666666663E-005    -4.6425329899803917E-017
   6.0466666666666655E-005    -2.5458999634742813E-017
   6.0666666666666660E-005     1.0275419548868471E-017
   6.0866666666666664E-005     6.1056583292703125E-017
   6.1066666666666656E-005     1.2450389060925191E-016
   6.1266666666666661E-005     1.9500733971845364E-016
   6.1466666666666665E-005     2.6354117252749311E-016
   6.1666666666666657E-005     3.1801679951095295E-016
   6.1866666666666662E-005     3.4428347649376602E-016
   6.2066666666666666E-005     3.2780452991427241E-016
   6.2266666666666658E-005     2.5593161381781769E-016
   6.2466666666666663E-005     1.2057651647018894E-016
   6.2666666666666668E-005    -7.9041858854880299E-017
   6.2866666666666659E-005    -3.3399967595093116E-016
   6.3066666666666664E-005    -6.2410218704776342E-016
   6.3266666666666655E-005    -9.1763007291351248E-016
   6.3466666666666660E-005    -1.1727965248123839E-015
   6.3666666666666665E-005    -1.3411520522548198E-015
   6.3866666666666656E-005    -1.3729282815128281E-015
   6.4066666666666661E-005    -1.2240176659240355E-015
   6.4266666666666666E-005    -8.6395963015575665E-016
   6.4466666666666657E-005    -2.8399543001690836E-016
   6.4666666666666662E-005     4.9597622473737451E-016
   6.4866666666666667E-005     1.4228288982597102E-015
   6.5066666666666658E-005     2.4092607046216109E-015
   6.5266666666666663E-005     3.3374605840465546E-015
   6.5466666666666654E-005     4.0679422212751368E-015
   6.5666666666666659E-005     4.4534840902945086E-015
   6.5866666666666664E-005     4.3573725323189840E-015
   6.6066666666666655E-005     3.6743759856299515E-015
   6.6266666666666660E-005     2.3521539550759628E-015
   6.6466666666666665E-005     4.1026702544752079E-016
   6.6666666666666656E-005    -2.0462931106795135E-015
   6.6866666666666661E-005    -4.8220247375130657E-015
   6.7066666666666666E-005    -7.6367016687119496E-015
   6.7266666666666657E-005    -1.0143459253694320E-014
   6.7466666666666662E-005    -1.1959273428876517E-014
   6.7666666666666667E-005    -1.2706284490554293E-014
   6.7866666666666658E-005    -1.2060742893759899E-014
   6.8066666666666663E-005    -9.8047578831416370E-015
   6.8266666666666655E-005    -5.8747922467765421E-015
   6.8466666666666659E-005    -4.0018855098505630E-016
   6.8666666666666664E-005     6.2749212936970538E-015
   6.8866666666666656E-005     1.3592061571848953E-014
   6.9066666666666660E-005     2.0805141734848293E-014
   6.9266666666666665E-005     2.7034881020589381E-014
   6.9466666666666657E-005     3.1349170492595696E-014
   6.9666666666666661E-005     3.2864244772822307E-014
   6.9866666666666666E-005     3.0858175986258479E-014
   7.0066666666666658E-005     2.4885477318691181E-014
   7.0266666666666662E-005     1.4879492359369181E-014
   7.0466666666666654E-005     1.2287298160887296E-015
   7.0666666666666659E-005    -1.5186040359244091E-014
   7.0866666666666664E-005    -3.3004747209981061E-014
   7.1066666666666655E-005    -5.0457911910132755E-014
   7.1266666666666660E-005    -6.5495142133071421E-014
   7.1466666666666665E-005    -7.5967742296442764E-014
   7.1666666666666656E-005    -7.9854281824151552E-014
   7.1866666666666661E-005    -7.5511469364679396E-014
   7.2066666666666666E-005    -6.1926978573313002E-014
   7.2266666666666657E-005    -3.8946971326172045E-014
   7.2466666666666662E-005    -7.4485697218961387E-015
   7.2666666666666667E-005     3.0571279150759870E-014
   7.2866666666666658E-005     7.2015757615097320E-014
   7.3066666666666663E-005     1.1283511559996573E-013
   7.3266666666666654E-005     1.4830829977736243E-013
   7.3466666666666659E-005     1.7345439049919892E-013
   7.3666666666666664E-005     1.8355362531568414E-013
   7.3866666666666655E-005     1.7474106742739609E-013
   7.4066666666666660E-005     1.4462107726653795E-013
   7.4266666666666665E-005     9.2835644499491415E-014
   7.4466666666666656E-005     2.1511143696384752E-014
   7.4666666666666661E-005    -6.4495975292226670E-014
   7.4866666666666666E-005    -1.5762875217335132E-013
   7.5066666666666657E-005    -2.4799343893537606E-013
   7.5266666666666662E-005    -3.2409033681561616E-013
   7.5466666666666653E-005    -3.7390712271170856E-013