  -3.3333333333333335E-005     0.0000000000000000     
  -3.3133333333333337E-005     0.0000000000000000     
  -3.2933333333333332E-005     0.0000000000000000     
  -3.2733333333333334E-005     0.0000000000000000     
  -3.2533333333333336E-005     0.0000000000000000     
  -3.2333333333333338E-005     0.0000000000000000     
  -3.2133333333333333E-005     0.0000000000000000     
  -3.1933333333333335E-005     0.0000000000000000     
  -3.1733333333333337E-005     0.0000000000000000     
  -3.1533333333333332E-005     0.0000000000000000     
  -3.1333333333333334E-005     0.0000000000000000     
  -3.1133333333333336E-005     0.0000000000000000     
  -3.0933333333333338E-005     0.0000000000000000     
  -3.0733333333333333E-005     0.0000000000000000     
  -3.0533333333333335E-005     0.0000000000000000     
  -3.0333333333333337E-005     0.0000000000000000     
  -3.0133333333333335E-005     0.0000000000000000     
  -2.9933333333333334E-005     0.0000000000000000     
  -2.9733333333333336E-005     0.0000000000000000     
  -2.9533333333333334E-005     0.0000000000000000     
  -2.9333333333333336E-005     0.0000000000000000     
  -2.9133333333333334E-005     0.0000000000000000     
  -2.8933333333333336E-005     0.0000000000000000     
  -2.8733333333333335E-005     0.0000000000000000     
  -2.8533333333333333E-005     0.0000000000000000     
  -2.8333333333333335E-005     0.0000000000000000     
  -2.8133333333333337E-005     0.0000000000000000     
  -2.7933333333333336E-005     0.0000000000000000     
  -2.7733333333333334E-005     0.0000000000000000     
  -2.7533333333333336E-005     0.0000000000000000     
  -2.7333333333333335E-005     0.0000000000000000     
  -2.7133333333333333E-005     0.0000000000000000     
  -2.6933333333333335E-005     0.0000000000000000     
  -2.6733333333333337E-005     0.0000000000000000     
  -2.6533333333333336E-005     0.0000000000000000     
  -2.6333333333333334E-005     0.0000000000000000     
  -2.6133333333333336E-005     0.0000000000000000     
  -2.5933333333333335E-005     0.0000000000000000     
  -2.5733333333333333E-005     0.0000000000000000     
  -2.5533333333333335E-005     0.0000000000000000     
  -2.5333333333333337E-005     0.0000000000000000     
  -2.5133333333333336E-005     0.0000000000000000     
  -2.4933333333333334E-005     0.0000000000000000     
  -2.4733333333333336E-005     0.0000000000000000     
  -2.4533333333333334E-005     0.0000000000000000     
  -2.4333333333333333E-005     0.0000000000000000     
  -2.4133333333333335E-005     0.0000000000000000     
  -2.3933333333333337E-005     0.0000000000000000     
  -2.3733333333333335E-005     0.0000000000000000     
  -2.3533333333333334E-005     0.0000000000000000     
  -2.3333333333333336E-005     0.0000000000000000     
  -2.3133333333333338E-005     0.0000000000000000     
  -2.2933333333333336E-005     0.0000000000000000     
  -2.2733333333333335E-005     0.0000000000000000     
  -2.2533333333333337E-005     0.0000000000000000     
  -2.2333333333333335E-005     0.0000000000000000     
  -2.2133333333333334E-005     0.0000000000000000     
  -2.1933333333333336E-005     0.0000000000000000     
  -2.1733333333333338E-005     0.0000000000000000     
  -2.1533333333333336E-005     0.0000000000000000     
  -2.1333333333333335E-005     0.0000000000000000     
  -2.1133333333333337E-005     0.0000000000000000     
  -2.0933333333333335E-005     0.0000000000000000     
  -2.0733333333333334E-005     0.0000000000000000     
  -2.0533333333333336E-005     0.0000000000000000     
  -2.0333333333333337E-005     0.0000000000000000     
  -2.0133333333333336E-005     0.0000000000000000     
  -1.9933333333333334E-005     0.0000000000000000     
  -1.9733333333333336E-005     0.0000000000000000     
  -1.9533333333333335E-005     0.0000000000000000     
  -1.9333333333333333E-005     0.0000000000000000     
  -1.9133333333333335E-005     0.0000000000000000     
  -1.8933333333333337E-005     0.0000000000000000     
  -1.8733333333333336E-005     0.0000000000000000     
  -1.8533333333333334E-005     0.0000000000000000     
  -1.8333333333333336E-005     0.0000000000000000     
  -1.8133333333333335E-005     0.0000000000000000     
  -1.7933333333333337E-005     0.0000000000000000     
  -1.7733333333333335E-005     0.0000000000000000     
  -1.7533333333333337E-005     0.0000000000000000     
  -1.7333333333333336E-005     0.0000000000000000     
  -1.7133333333333334E-005     0.0000000000000000     
  -1.6933333333333336E-005     0.0000000000000000     
  -1.6733333333333335E-005     0.0000000000000000     
  -1.6533333333333337E-005     0.0000000000000000     
  -1.6333333333333335E-005     0.0000000000000000     
  -1.6133333333333337E-005     0.0000000000000000     
  -1.5933333333333336E-005     0.0000000000000000     
  -1.5733333333333334E-005     0.0000000000000000     
  -1.5533333333333336E-005     0.0000000000000000     
  -1.5333333333333334E-005     0.0000000000000000     
  -1.5133333333333336E-005     0.0000000000000000     
  -1.4933333333333335E-005     0.0000000000000000     
  -1.4733333333333337E-005     0.0000000000000000     
  -1.4533333333333335E-005     0.0000000000000000     
  -1.4333333333333337E-005     0.0000000000000000     
  -1.4133333333333336E-005     0.0000000000000000     
  -1.3933333333333334E-005     0.0000000000000000     
  -1.3733333333333336E-005     0.0000000000000000     
  -1.3533333333333335E-005     0.0000000000000000     
  -1.3333333333333337E-005     0.0000000000000000     
  -1.3133333333333335E-005     0.0000000000000000     
  -1.2933333333333337E-005     0.0000000000000000     
  -1.2733333333333336E-005     0.0000000000000000     
  -1.2533333333333338E-005     0.0000000000000000     
  -1.2333333333333336E-005     0.0000000000000000     
  -1.2133333333333335E-005     0.0000000000000000     
  -1.1933333333333337E-005     0.0000000000000000     
  -1.1733333333333335E-005     0.0000000000000000     
  -1.1533333333333337E-005     0.0000000000000000     
  -1.1333333333333336E-005     0.0000000000000000     
  -1.1133333333333337E-005     0.0000000000000000     
  -1.0933333333333336E-005     0.0000000000000000     
  -1.0733333333333334E-005     0.0000000000000000     
  -1.0533333333333336E-005     0.0000000000000000     
  -1.0333333333333335E-005     0.0000000000000000     
  -1.0133333333333337E-005     0.0000000000000000     
  -9.9333333333333354E-006     0.0000000000000000     
  -9.7333333333333373E-006     0.0000000000000000     
  -9.5333333333333358E-006     0.0000000000000000     
  -9.3333333333333343E-006     0.0000000000000000     
  -9.1333333333333362E-006     0.0000000000000000     
  -8.9333333333333348E-006     0.0000000000000000     
  -8.7333333333333367E-006     0.0000000000000000     
  -8.5333333333333352E-006     0.0000000000000000     
  -8.3333333333333371E-006     0.0000000000000000     
  -8.1333333333333356E-006     0.0000000000000000     
  -7.9333333333333376E-006     0.0000000000000000     
  -7.7333333333333361E-006     0.0000000000000000     
  -7.5333333333333346E-006     0.0000000000000000     
  -7.3333333333333365E-006     0.0000000000000000     
  -7.1333333333333351E-006     0.0000000000000000     
  -6.9333333333333370E-006     0.0000000000000000     
  -6.7333333333333355E-006     0.0000000000000000     
  -6.5333333333333374E-006     0.0000000000000000     
  -6.3333333333333359E-006     0.0000000000000000     
  -6.1333333333333379E-006     0.0000000000000000     
  -5.9333333333333364E-006     0.0000000000000000     
  -5.7333333333333349E-006     0.0000000000000000     
  -5.5333333333333368E-006     0.0000000000000000     
  -5.3333333333333354E-006     0.0000000000000000     
  -5.1333333333333373E-006     0.0000000000000000     
  -4.9333333333333358E-006     0.0000000000000000     
  -4.7333333333333377E-006     0.0000000000000000     
  -4.5333333333333362E-006     0.0000000000000000     
  -4.3333333333333348E-006     0.0000000000000000     
  -4.1333333333333367E-006     0.0000000000000000     
  -3.9333333333333352E-006     0.0000000000000000     
  -3.7333333333333371E-006     0.0000000000000000     
  -3.5333333333333356E-006     0.0000000000000000     
  -3.3333333333333376E-006     0.0000000000000000     
  -3.1333333333333361E-006     0.0000000000000000     
  -2.9333333333333346E-006     0.0000000000000000     
  -2.7333333333333365E-006     0.0000000000000000     
  -2.5333333333333384E-006     0.0000000000000000     
  -2.3333333333333336E-006     0.0000000000000000     
  -2.1333333333333355E-006     0.0000000000000000     
  -1.9333333333333374E-006     0.0000000000000000     
  -1.7333333333333393E-006     0.0000000000000000     
  -1.5333333333333345E-006     0.0000000000000000     
  -1.3333333333333364E-006     0.0000000000000000     
  -1.1333333333333383E-006     0.0000000000000000     
  -9.3333333333333343E-007     0.0000000000000000     
  -7.3333333333333535E-007     0.0000000000000000     
  -5.3333333333333726E-007     0.0000000000000000     
  -3.3333333333333918E-007     0.0000000000000000     
  -1.3333333333333432E-007     0.0000000000000000     
   6.6666666666663770E-008     0.0000000000000000     
   2.6666666666666185E-007     0.0000000000000000     
   4.6666666666666672E-007     0.0000000000000000     
   6.6666666666666480E-007     0.0000000000000000     
   8.6666666666666289E-007     0.0000000000000000     
   1.0666666666666610E-006     0.0000000000000000     
   1.2666666666666658E-006     0.0000000000000000     
   1.4666666666666639E-006     0.0000000000000000     
   1.6666666666666620E-006     0.0000000000000000     
   1.8666666666666669E-006     0.0000000000000000     
   2.0666666666666649E-006    -1.4873171145054574E-036
   2.2666666666666630E-006    -3.5118923292823548E-036
   2.4666666666666611E-006    -5.8554287239066716E-036
   2.6666666666666660E-006    -8.0312760136733445E-036
   2.8666666666666641E-006    -5.8524408416898751E-036
   3.0666666666666622E-006    -1.3028205354283109E-035
   3.2666666666666602E-006    -2.4352750330324539E-035
   3.4666666666666651E-006    -5.9837466601247199E-035
   3.6666666666666632E-006    -1.2085660349043331E-034
   3.8666666666666613E-006    -2.0299529292403541E-034
   4.0666666666666661E-006    -3.0266233652338779E-034
   4.2666666666666642E-006    -3.8887277078845781E-034
   4.4666666666666623E-006    -4.2558984193162083E-034
   4.6666666666666604E-006    -3.6437312671216931E-034
   4.8666666666666652E-006    -1.7230180380937119E-034
   5.0666666666666633E-006     1.6607373856923960E-034
   5.2666666666666614E-006     6.5572987081003528E-034
   5.4666666666666663E-006     1.2657576232860539E-033
   5.6666666666666644E-006     1.9130733422671017E-033
   5.8666666666666624E-006     2.4671842978424427E-033
   6.0666666666666605E-006     2.7512417730346792E-033
   6.2666666666666654E-006     2.5610532155563641E-033
   6.4666666666666635E-006     1.6986268058206379E-033
   6.6666666666666616E-006     1.8241700731453760E-035
   6.8666666666666664E-006    -2.5155748084909883E-033
   7.0666666666666645E-006    -5.7677643357171320E-033
   7.2666666666666626E-006    -9.3850433065254772E-033
   7.4666666666666607E-006    -1.2766900146222889E-032
   7.6666666666666655E-006    -1.5082546140842053E-032
   7.8666666666666636E-006    -1.5345970016757512E-032
   8.0666666666666617E-006    -1.2535105884552181E-032
   8.2666666666666598E-006    -5.8045407785085611E-033
   8.4666666666666647E-006     5.2791693741138789E-033
   8.6666666666666627E-006     2.0469109413531026E-032
   8.8666666666666608E-006     3.8596372532730997E-032
   9.0666666666666657E-006     5.7402745187023897E-032
   9.2666666666666638E-006     7.3513412482557709E-032
   9.4666666666666619E-006     8.2608470883626928E-032
   9.6666666666666599E-006     7.9840434418725868E-032
   9.8666666666666648E-006     6.0516982370657383E-032
   1.0066666666666663E-005     2.1037797417411525E-032
   1.0266666666666661E-005    -3.9987373201625411E-032
   1.0466666666666666E-005    -1.2055258804970953E-031
   1.0666666666666664E-005    -2.1418842433564613E-031
   1.0866666666666662E-005    -3.0924773726065448E-031
   1.1066666666666660E-005    -3.8881121345538311E-031
   1.1266666666666665E-005    -4.3149491796650942E-031
   1.1466666666666663E-005    -4.1340405990735441E-031
   1.1666666666666661E-005    -3.1138438632237012E-031
   1.1866666666666666E-005    -1.0756258789190820E-031
   1.2066666666666664E-005     2.0507455802496375E-031
   1.2266666666666662E-005     6.1661778686507946E-031
   1.2466666666666660E-005     1.0945979580732745E-030
   1.2666666666666665E-005     1.5800368760363071E-030
   1.2866666666666663E-005     1.9867174844151502E-030
   1.3066666666666661E-005     2.2053067715211789E-030
   1.3266666666666666E-005     2.1137705562249070E-030
   1.3466666666666664E-005     1.5949333046872155E-030
   1.3666666666666662E-005     5.6098276771523739E-031
   1.3866666666666660E-005    -1.0168076915968742E-030
   1.4066666666666665E-005    -3.0767387257631592E-030
   1.4266666666666663E-005    -5.4393305910853789E-030
   1.4466666666666661E-005    -7.7912593120524195E-030
   1.4666666666666666E-005    -9.6888284333757842E-030
   1.4866666666666664E-005    -1.0588773366670406E-029
   1.5066666666666662E-005    -9.9118827182239763E-030
   1.5266666666666661E-005    -7.1404469587592081E-030
   1.5466666666666665E-005    -1.9439048516836257E-030
   1.5666666666666663E-005     5.6811562982020780E-030
   1.5866666666666662E-005     1.5279128986451394E-029
   1.6066666666666660E-005     2.5841502066556005E-029
   1.6266666666666665E-005     3.5784834618918717E-029
   1.6466666666666663E-005     4.3032879371625640E-029
   1.6666666666666661E-005     4.5226302929695035E-029
   1.6866666666666666E-005     4.0066212996478000E-029
   1.7066666666666664E-005     2.5773095442343801E-029
   1.7266666666666662E-005     1.6129100927745667E-030
   1.7466666666666660E-005    -3.1588492066935207E-029
   1.7666666666666665E-005    -7.1046520461100022E-029
   1.7866666666666663E-005    -1.1185121022989454E-028
   1.8066666666666661E-005    -1.4714316627412365E-028
   1.8266666666666666E-005    -1.6871231775973468E-028
   1.8466666666666664E-005    -1.6804462192213993E-028
   1.8666666666666662E-005    -1.3776457355750049E-028
   1.8866666666666660E-005    -7.3331473839776420E-029
   1.9066666666666665E-005     2.5242191788314692E-029
   1.9266666666666663E-005     1.5195339297734951E-028
   1.9466666666666661E-005     2.9399106341364842E-028
   1.9666666666666666E-005     4.3186104552441766E-028
   1.9866666666666664E-005     5.4069857261439721E-028
   2.0066666666666662E-005     5.9287480740626679E-028
   2.0266666666666660E-005     5.6181259074296308E-028
   2.0466666666666665E-005     4.2670932736792763E-028
   2.0666666666666663E-005     1.7764357713558744E-028
   2.0866666666666661E-005    -1.7963899703978060E-028
   2.1066666666666659E-005    -6.2008136046915586E-028
   2.1266666666666664E-005    -1.0976520902559199E-027
   2.1466666666666662E-005    -1.5464133154870814E-027
   2.1666666666666660E-005    -1.8848669994499612E-027
   2.1866666666666665E-005    -2.0238209190075558E-027
   2.2066666666666663E-005    -1.8776308954629094E-027
   2.2266666666666661E-005    -1.3782182904733470E-027
   2.2466666666666659E-005    -4.9078357217023268E-028
   2.2666666666666664E-005     7.7038189629410794E-028
   2.2866666666666662E-005     2.3280764427269348E-027
   2.3066666666666660E-005     4.0329061628246161E-027
   2.3266666666666665E-005     5.6614209088759531E-027
   2.3466666666666663E-005     6.9246533816531073E-027
   2.3666666666666661E-005     7.4897705311428986E-027
   2.3866666666666660E-005     7.0166989662992176E-027
   2.4066666666666664E-005     5.2099875521434516E-027
   2.4266666666666662E-005     1.8837199155750841E-027
   2.4466666666666661E-005    -2.9660270627026015E-027
   2.4666666666666665E-005    -9.0905488045071485E-027
   2.4866666666666663E-005    -1.5932984236834365E-026
   2.5066666666666662E-005    -2.2604260734259932E-026
   2.5266666666666660E-005    -2.7908089993315629E-026
   2.5466666666666665E-005    -3.0430679197449853E-026
   2.5666666666666663E-005    -2.8704904218834983E-026
   2.5866666666666661E-005    -2.1448177373938761E-026
   2.6066666666666666E-005    -7.8585306487106560E-027
   2.6266666666666664E-005     1.2064066771728444E-026
   2.6466666666666662E-005     3.7221739292952573E-026
   2.6666666666666660E-005     6.5212826081663603E-026
   2.6866666666666665E-005     9.2287087016672712E-026
   2.7066666666666663E-005     1.1352738875687805E-025
   2.7266666666666661E-005     1.2330275587915052E-025
   2.7466666666666666E-005     1.1600155237849060E-025
   2.7666666666666664E-005     8.7003832852398892E-026
   2.7866666666666662E-005     3.3794721060982459E-026
   2.8066666666666667E-005    -4.2935292429121166E-026
   2.8266666666666658E-005    -1.3840075241822382E-025
   2.8466666666666663E-005    -2.4325844889315815E-025
   2.8666666666666668E-005    -3.4377197464470188E-025
   2.8866666666666659E-005    -4.2274804461380483E-025
   2.9066666666666664E-005    -4.6129297173426130E-025
   2.9266666666666669E-005    -4.4131043475172101E-025
   2.9466666666666660E-005    -3.4852086799032580E-025
   2.9666666666666665E-005    -1.7564656121324937E-025
   2.9866666666666656E-005     7.4694250072103919E-026
   3.0066666666666661E-005     3.8788845377541134E-025
   3.0266666666666666E-005     7.3650233339684335E-025
   3.0466666666666657E-005     1.0811021189539615E-024
   3.0666666666666662E-005     1.3729164603295735E-024
   3.0866666666666667E-005     1.5583081407797608E-024
   3.1066666666666658E-005     1.5847690993388155E-024
   3.1266666666666663E-005     1.4079149646429958E-024
   3.1466666666666668E-005     9.9877038260546813E-025
   3.1666666666666659E-005     3.5051927453038021E-025
   3.1866666666666664E-005    -5.1611905116615450E-025
   3.2066666666666656E-005    -1.5496540408266469E-024
   3.2266666666666660E-005    -2.6673388940069407E-024
   3.2466666666666665E-005    -3.7578367407725371E-024
   3.2666666666666657E-005    -4.6871969286570320E-024
   3.2866666666666661E-005    -5.3080572823367458E-024
   3.3066666666666666E-005    -5.4717644584013785E-024
   3.3266666666666658E-005    -5.0428950996820915E-024
   3.3466666666666662E-005    -3.9154791541978306E-024
   3.3666666666666667E-005    -2.0300475537476048E-024
   3.3866666666666659E-005     6.0954167880398958E-025
   3.4066666666666664E-005     3.9207341511179604E-024
   3.4266666666666668E-005     7.7297955747710240E-024
   3.4466666666666660E-005     1.1763859061254845E-023
   3.4666666666666665E-005     1.5649351640292962E-023
   3.4866666666666656E-005     1.8918896102508177E-023
   3.5066666666666661E-005     2.1028897075582647E-023
   3.5266666666666666E-005     2.1390195370173870E-023
   3.5466666666666657E-005     1.9413966273963158E-023
   3.5666666666666662E-005     1.4574646986065117E-023
   3.5866666666666667E-005     6.4904824708943309E-024
   3.6066666666666658E-005    -4.9796576429368595E-024
   3.6266666666666663E-005    -1.9627798066375987E-023
   3.6466666666666668E-005    -3.6785852498791376E-023
   3.6666666666666659E-005    -5.5226997082157793E-023
   3.6866666666666664E-005    -7.3100729793616841E-023
   3.7066666666666669E-005    -8.7928784145987914E-023
   3.7266666666666660E-005    -9.6692965694120937E-023
   3.7466666666666665E-005    -9.6044742911082727E-023
   3.7666666666666656E-005    -8.2659609817669511E-023
   3.7866666666666661E-005    -5.3742228329899772E-023
   3.8066666666666666E-005    -7.6632401690584324E-024
   3.8266666666666657E-005     5.5326002281206651E-023
   3.8466666666666662E-005     1.3239342762886234E-022
   3.8666666666666667E-005     2.1757149797455528E-022
   3.8866666666666658E-005     3.0150602061103230E-022
   3.9066666666666663E-005     3.7167410003606123E-022
   3.9266666666666668E-005     4.1321483372917760E-022
   3.9466666666666659E-005     4.1045690027387804E-022
   3.9666666666666664E-005     3.4912949035035236E-022
   3.9866666666666655E-005     2.1911190981962397E-022
   4.0066666666666660E-005     1.7429436783307711E-023
   4.0266666666666665E-005    -2.4894105043076092E-022
   4.0466666666666656E-005    -5.6100096972459374E-022
   4.0666666666666661E-005    -8.8698116641727998E-022
   4.0866666666666666E-005    -1.1834471610157425E-021
   4.1066666666666657E-005    -1.3986240811788302E-021
   4.1266666666666662E-005    -1.4780281693257357E-021
   4.1466666666666667E-005    -1.3721166382020745E-021
   4.1666666666666658E-005    -1.0452525638858552E-021
   4.1866666666666663E-005    -4.8487172718518653E-022
   4.2066666666666668E-005     2.9057167640174903E-022
   4.2266666666666660E-005     1.2264473252488412E-021
   4.2466666666666664E-005     2.2310612084203693E-021
   4.2666666666666656E-005     3.1801679605359649E-021
   4.2866666666666661E-005     3.9274075041684595E-021
   4.3066666666666665E-005     4.3203748406808338E-021
   4.3266666666666657E-005     4.2211054931355845E-021
   4.3466666666666662E-005     3.5288692193216398E-021
   4.3666666666666666E-005     2.2024204836075042E-021
   4.3866666666666658E-005     2.7843240711316946E-022
   4.4066666666666663E-005    -2.1171780674554942E-021
   4.4266666666666667E-005    -4.7678674351685176E-021
   4.4466666666666659E-005    -7.3769711861583612E-021
   4.4666666666666664E-005    -9.5907512668010480E-021
   4.4866666666666655E-005    -1.1033147459940390E-020
   4.5066666666666660E-005    -1.1349805769357614E-020
   4.5266666666666665E-005    -1.0257530734146247E-020
   4.5466666666666656E-005    -7.5941335619348071E-021
   4.5666666666666661E-005    -3.3629296394704350E-021
   4.5866666666666666E-005     2.2340983102836957E-021
   4.6066666666666657E-005     8.7801603107323968E-021
   4.6266666666666662E-005     1.5649409006257990E-020
   4.6466666666666667E-005     2.2038098077632952E-020
   4.6666666666666658E-005     2.7022885550507832E-020
   4.6866666666666663E-005     2.9645649090714737E-020
   4.7066666666666668E-005     2.9021528393846407E-020
   4.7266666666666659E-005     2.4463630740534245E-020
   4.7466666666666664E-005     1.5614467087726160E-020
   4.7666666666666655E-005     2.5706226868928302E-021
   4.7866666666666660E-005    -1.4015880777243480E-020
   4.8066666666666665E-005    -3.2878193376389543E-020
   4.8266666666666656E-005    -5.2136315129816497E-020
   4.8466666666666661E-005    -6.9376801197558834E-020
   4.8666666666666666E-005    -8.1822340974181479E-020
   4.8866666666666657E-005    -8.6594365315045502E-020
   4.9066666666666662E-005    -8.1059926018651939E-020
   4.9266666666666667E-005    -6.3239870684845495E-020
   4.9466666666666658E-005    -3.2240065539070363E-020
   4.9666666666666663E-005     1.1346590750961167E-020
   4.9866666666666655E-005     6.5129422622555104E-020
   5.0066666666666659E-005     1.2476621088139325E-019
   5.0266666666666664E-005     1.8402677413318755E-019
   5.0466666666666656E-005     2.3511882543844414E-019
   5.0666666666666660E-005     2.6929586039760386E-019
   5.0866666666666665E-005     2.7773297339867403E-019
   5.1066666666666657E-005     2.5261827073670385E-019
   5.1266666666666661E-005     1.8836833497574869E-019
   5.1466666666666666E-005     8.2843547139166476E-020
   5.1666666666666658E-005    -6.1584727515566635E-020
   5.1866666666666662E-005    -2.3726977937441757E-019
   5.2066666666666667E-005    -4.3097332590355672E-019
   5.2266666666666659E-005    -6.2411428621858324E-019
   5.2466666666666664E-005    -7.9365627479596058E-019
   5.2666666666666655E-005    -9.1365293641597893E-019
   5.2866666666666660E-005    -9.5740975684426840E-019
   5.3066666666666665E-005    -9.0016389537192357E-019
   5.3266666666666656E-005    -7.2212733059029776E-019
   5.3466666666666661E-005    -4.1169608852316155E-019
   5.3666666666666666E-005     3.1410791125591811E-020
   5.3866666666666657E-005     5.9335159433410099E-019
   5.4066666666666662E-005     1.2439982673869937E-018
   5.4266666666666667E-005     1.9357376706090840E-018
   5.4466666666666658E-005     2.6035944049928136E-018
   5.4666666666666663E-005     3.1670514334953068E-018
   5.4866666666666668E-005     3.5339385020016173E-018
   5.5066666666666659E-005     3.6067059940782134E-018
   5.5266666666666664E-005     3.2912825877673489E-018
   5.5466666666666655E-005     2.5084789743068724E-018
   5.5666666666666660E-005     1.2075721283423023E-018
   5.5866666666666665E-005    -6.1875069203042455E-019
   5.6066666666666656E-005    -2.9194609733168534E-018
   5.6266666666666661E-005    -5.5721992124772081E-018
   5.6466666666666666E-005    -8.3746817511328842E-018
   5.6666666666666657E-005    -1.1043271459166746E-017
   5.6866666666666662E-005    -1.3221520907788361E-017
   5.7066666666666667E-005    -1.4501050201399687E-017
   5.7266666666666658E-005    -1.4456207086031962E-017
   5.7466666666666663E-005    -1.2692372642757576E-017
   5.7666666666666654E-005    -8.9058202127174712E-018
   5.7866666666666659E-005    -2.9505673070470631E-018
   5.8066666666666664E-005     5.0947770326912022E-018
   5.8266666666666655E-005     1.4869370567112399E-017
   5.8466666666666660E-005     2.5692458127746104E-017
   5.8666666666666665E-005     3.6556668145352271E-017
   5.8866666666666656E-005     4.6162266612677353E-017
   5.9066666666666661E-005     5.2999288261065000E-017
   5.9266666666666666E-005     5.5479840790711470E-017
   5.9466666666666657E-005     5.2116481406679007E-017
   5.9666666666666662E-005     4.1735318397024206E-017
   5.9866666666666667E-005     2.3704731535252603E-017
   6.0066666666666659E-005    -1.8460700514374170E-018
   6.0266666666666663E-005    -3.3849441658086670E-017
   6.0466666666666655E-005    -7.0195373961862482E-017
   6.0666666666666660E-005    -1.0773172504622051E-016
   6.0866666666666664E-005    -1.4239290881790751E-016
   6.1066666666666656E-005    -1.6946991839855713E-016
   6.1266666666666661E-005    -1.8401962832667086E-016
   6.1466666666666665E-005    -1.8139372031106412E-016
   6.1666666666666657E-005    -1.5784809696663609E-016
   6.1866666666666662E-005    -1.1117732272675299E-016
   6.2066666666666666E-005    -4.1303212479916305E-017
   6.2266666666666658E-005     4.9260177120696649E-017
   6.2466666666666663E-005     1.5514292519601207E-016
   6.2666666666666668E-005     2.6812629421987865E-016
   6.2866666666666659E-005     3.7746993619961389E-016
   6.3066666666666664E-005     4.7058185934133537E-016
   6.3266666666666655E-005     5.3401954489299894E-016
   6.3466666666666660E-005     5.5477111094690045E-016
   6.3666666666666665E-005     5.2172930858657585E-016
   6.3866666666666656E-005     4.2723251304587319E-016
   6.4066666666666661E-005     2.6852439970508817E-016
   6.4266666666666666E-005     4.8966531311962774E-017
   6.4466666666666657E-005    -2.2116255245936396E-016
   6.4666666666666662E-005    -5.2443002019933699E-016
   6.4866666666666667E-005    -8.3669056908920693E-016
   6.5066666666666658E-005    -1.1282760495882243E-015
   6.5266666666666663E-005    -1.3659388832694408E-015
   6.5466666666666654E-005    -1.5154872087883974E-015
   6.5666666666666659E-005    -1.5449722139240828E-015
   6.5866666666666664E-005    -1.4282177218701421E-015
   6.6066666666666655E-005    -1.1484163754915634E-015
   6.6266666666666660E-005    -7.0146493543361008E-016
   6.6466666666666665E-005    -9.8681402997934922E-017
   6.6666666666666656E-005     6.3145586239802924E-016
   6.6866666666666661E-005     1.4428835679562583E-015
   6.7066666666666666E-005     2.2731162519764800E-015
   6.7266666666666657E-005     3.0461740002987996E-015
   6.7466666666666662E-005     3.6773300130335008E-015
   6.7666666666666667E-005     4.0795567370478878E-015
   6.7866666666666658E-005     4.1713886610574100E-015
   6.8066666666666663E-005     3.8857140941016884E-015
   6.8266666666666655E-005     3.1788371475307154E-015
   6.8466666666666659E-005     2.0389842751358930E-015
   6.8666666666666664E-005     4.9333364076061871E-016
   6.8866666666666656E-005    -1.3874056627681802E-015
   6.9066666666666660E-005    -3.4877634041632780E-015
   6.9266666666666665E-005    -5.6503983959723010E-015
   6.9466666666666657E-005    -7.6835824012436334E-015
   6.9666666666666661E-005    -9.3733902611263867E-015
   6.9866666666666666E-005    -1.0500246471736776E-014
   7.0066666666666658E-005    -1.0858992876986232E-014
   7.0266666666666662E-005    -1.0281044509382730E-014
   7.0466666666666654E-005    -8.6568351161000860E-015
   7.0666666666666659E-005    -5.9563094270708751E-015
   7.0866666666666664E-005    -2.2450828495541517E-015
   7.1066666666666655E-005     2.3060728216464871E-015
   7.1266666666666660E-005     7.4204380636519289E-015
   7.1466666666666665E-005     1.2724730327046650E-014
   7.1666666666666656E-005     1.7769253679144476E-014
   7.1866666666666661E-005     2.2058435400528278E-014
   7.2066666666666666E-005     2.5090144195670343E-014
   7.2266666666666657E-005     2.6401152992310342E-014
   7.2466666666666662E-005     2.5615058983413305E-014
   7.2666666666666667E-005     2.2488231776426372E-014
   7.2866666666666658E-005     1.6949130968624444E-014
   7.3066666666666663E-005     9.1262370585458961E-015
   7.3266666666666654E-005    -6.3903251917165975E-016
   7.3466666666666659E-005    -1.1797378327601908E-014
   7.3666666666666664E-005    -2.3615813894272558E-014
   7.3866666666666655E-005    -3.5219938266826609E-014
   7.4066666666666660E-005    -4.5652165451800022E-014
   7.4266666666666665E-005    -5.3940894448583493E-014
   7.4466666666666656E-005    -5.9175266683281214E-014
   7.4666666666666661E-005    -6.0578813829408745E-014
   7.4866666666666666E-005    -5.7575411181298025E-014
   7.5066666666666657E-005    -4.9841875011990069E-014
   7.5266666666666662E-005    -3.7343263518344744E-014
   7.5466666666666653E-005    -2.0348684149902423E-014