  -3.3333333333333335E-005     0.0000000000000000     
  -3.3133333333333337E-005     0.0000000000000000     
  -3.2933333333333332E-005     0.0000000000000000     
  -3.2733333333333334E-005     0.0000000000000000     
  -3.2533333333333336E-005     0.0000000000000000     
  -3.2333333333333338E-005     0.0000000000000000     
  -3.2133333333333333E-005     0.0000000000000000     
  -3.1933333333333335E-005     0.0000000000000000     
  -3.1733333333333337E-005     0.0000000000000000     
  -3.1533333333333332E-005     0.0000000000000000     
  -3.1333333333333334E-005     0.0000000000000000     
  -3.1133333333333336E-005     0.0000000000000000     
  -3.0933333333333338E-005     0.0000000000000000     
  -3.0733333333333333E-005     0.0000000000000000     
  -3.0533333333333335E-005     0.0000000000000000     
  -3.0333333333333337E-005     0.0000000000000000     
  -3.0133333333333335E-005     0.0000000000000000     
  -2.9933333333333334E-005     0.0000000000000000     
  -2.9733333333333336E-005     0.0000000000000000     
  -2.9533333333333334E-005     0.0000000000000000     
  -2.9333333333333336E-005     0.0000000000000000     
  -2.9133333333333334E-005     0.0000000000000000     
  -2.8933333333333336E-005     0.0000000000000000     
  -2.8733333333333335E-005     0.0000000000000000     
  -2.8533333333333333E-005     0.0000000000000000     
  -2.8333333333333335E-005     0.0000000000000000     
  -2.8133333333333337E-005     0.0000000000000000     
  -2.7933333333333336E-005     0.0000000000000000     
  -2.7733333333333334E-005     0.0000000000000000     
  -2.7533333333333336E-005     0.0000000000000000     
  -2.7333333333333335E-005     0.0000000000000000     
  -2.7133333333333333E-005     0.0000000000000000     
  -2.6933333333333335E-005     0.0000000000000000     
  -2.6733333333333337E-005     0.0000000000000000     
  -2.6533333333333336E-005     0.0000000000000000     
  -2.6333333333333334E-005     0.0000000000000000     
  -2.6133333333333336E-005     0.0000000000000000     
  -2.5933333333333335E-005     0.0000000000000000     
  -2.5733333333333333E-005     0.0000000000000000     
  -2.5533333333333335E-005     0.0000000000000000     
  -2.5333333333333337E-005     0.0000000000000000     
  -2.5133333333333336E-005     0.0000000000000000     
  -2.4933333333333334E-005     0.0000000000000000     
  -2.4733333333333336E-005     0.0000000000000000     
  -2.4533333333333334E-005     0.0000000000000000     
  -2.4333333333333333E-005     0.0000000000000000     
  -2.4133333333333335E-005     0.0000000000000000     
  -2.3933333333333337E-005     0.0000000000000000     
  -2.3733333333333335E-005     0.0000000000000000     
  -2.3533333333333334E-005     0.0000000000000000     
  -2.3333333333333336E-005     0.0000000000000000     
  -2.3133333333333338E-005     0.0000000000000000     
  -2.2933333333333336E-005     0.0000000000000000     
  -2.2733333333333335E-005     0.0000000000000000     
  -2.2533333333333337E-005     0.0000000000000000     
  -2.2333333333333335E-005     0.0000000000000000     
  -2.2133333333333334E-005     0.0000000000000000     
  -2.1933333333333336E-005     0.0000000000000000     
  -2.1733333333333338E-005     0.0000000000000000     
  -2.1533333333333336E-005     0.0000000000000000     
  -2.1333333333333335E-005     0.0000000000000000     
  -2.1133333333333337E-005     0.0000000000000000     
  -2.0933333333333335E-005     0.0000000000000000     
  -2.0733333333333334E-005     0.0000000000000000     
  -2.0533333333333336E-005     0.0000000000000000     
  -2.0333333333333337E-005     0.0000000000000000     
  -2.0133333333333336E-005     0.0000000000000000     
  -1.9933333333333334E-005     0.0000000000000000     
  -1.9733333333333336E-005     0.0000000000000000     
  -1.9533333333333335E-005     0.0000000000000000     
  -1.9333333333333333E-005     0.0000000000000000     
  -1.9133333333333335E-005     0.0000000000000000     
  -1.8933333333333337E-005     0.0000000000000000     
  -1.8733333333333336E-005     0.0000000000000000     
  -1.8533333333333334E-005     0.0000000000000000     
  -1.8333333333333336E-005     0.0000000000000000     
  -1.8133333333333335E-005     0.0000000000000000     
  -1.7933333333333337E-005     0.0000000000000000     
  -1.7733333333333335E-005     0.0000000000000000     
  -1.7533333333333337E-005     0.0000000000000000     
  -1.7333333333333336E-005     0.0000000000000000     
  -1.7133333333333334E-005     0.0000000000000000     
  -1.6933333333333336E-005     0.0000000000000000     
  -1.6733333333333335E-005     0.0000000000000000     
  -1.6533333333333337E-005     0.0000000000000000     
  -1.6333333333333335E-005     0.0000000000000000     
  -1.6133333333333337E-005     0.0000000000000000     
  -1.5933333333333336E-005     0.0000000000000000     
  -1.5733333333333334E-005     0.0000000000000000     
  -1.5533333333333336E-005     0.0000000000000000     
  -1.5333333333333334E-005     0.0000000000000000     
  -1.5133333333333336E-005     0.0000000000000000     
  -1.4933333333333335E-005     0.0000000000000000     
  -1.4733333333333337E-005     0.0000000000000000     
  -1.4533333333333335E-005     0.0000000000000000     
  -1.4333333333333337E-005     0.0000000000000000     
  -1.4133333333333336E-005     0.0000000000000000     
  -1.3933333333333334E-005     0.0000000000000000     
  -1.3733333333333336E-005     0.0000000000000000     
  -1.3533333333333335E-005     0.0000000000000000     
  -1.3333333333333337E-005     0.0000000000000000     
  -1.3133333333333335E-005     0.0000000000000000     
  -1.2933333333333337E-005     0.0000000000000000     
  -1.2733333333333336E-005     0.0000000000000000     
  -1.2533333333333338E-005     0.0000000000000000     
  -1.2333333333333336E-005     0.0000000000000000     
  -1.2133333333333335E-005     0.0000000000000000     
  -1.1933333333333337E-005     0.0000000000000000     
  -1.1733333333333335E-005     0.0000000000000000     
  -1.1533333333333337E-005     0.0000000000000000     
  -1.1333333333333336E-005     0.0000000000000000     
  -1.1133333333333337E-005     0.0000000000000000     
  -1.0933333333333336E-005     0.0000000000000000     
  -1.0733333333333334E-005     0.0000000000000000     
  -1.0533333333333336E-005     0.0000000000000000     
  -1.0333333333333335E-005     0.0000000000000000     
  -1.0133333333333337E-005     0.0000000000000000     
  -9.9333333333333354E-006     0.0000000000000000     
  -9.7333333333333373E-006     0.0000000000000000     
  -9.5333333333333358E-006     0.0000000000000000     
  -9.3333333333333343E-006     0.0000000000000000     
  -9.1333333333333362E-006     0.0000000000000000     
  -8.9333333333333348E-006     0.0000000000000000     
  -8.7333333333333367E-006     0.0000000000000000     
  -8.5333333333333352E-006     0.0000000000000000     
  -8.3333333333333371E-006     0.0000000000000000     
  -8.1333333333333356E-006     0.0000000000000000     
  -7.9333333333333376E-006     0.0000000000000000     
  -7.7333333333333361E-006     0.0000000000000000     
  -7.5333333333333346E-006     0.0000000000000000     
  -7.3333333333333365E-006     0.0000000000000000     
  -7.1333333333333351E-006     0.0000000000000000     
  -6.9333333333333370E-006     0.0000000000000000     
  -6.7333333333333355E-006     0.0000000000000000     
  -6.5333333333333374E-006     0.0000000000000000     
  -6.3333333333333359E-006     0.0000000000000000     
  -6.1333333333333379E-006     0.0000000000000000     
  -5.9333333333333364E-006     0.0000000000000000     
  -5.7333333333333349E-006     0.0000000000000000     
  -5.5333333333333368E-006     0.0000000000000000     
  -5.3333333333333354E-006     0.0000000000000000     
  -5.1333333333333373E-006     0.0000000000000000     
  -4.9333333333333358E-006     0.0000000000000000     
  -4.7333333333333377E-006     0.0000000000000000     
  -4.5333333333333362E-006     0.0000000000000000     
  -4.3333333333333348E-006     0.0000000000000000     
  -4.1333333333333367E-006     0.0000000000000000     
  -3.9333333333333352E-006     0.0000000000000000     
  -3.7333333333333371E-006     0.0000000000000000     
  -3.5333333333333356E-006     0.0000000000000000     
  -3.3333333333333376E-006     0.0000000000000000     
  -3.1333333333333361E-006     0.0000000000000000     
  -2.9333333333333346E-006     0.0000000000000000     
  -2.7333333333333365E-006     0.0000000000000000     
  -2.5333333333333384E-006     0.0000000000000000     
  -2.3333333333333336E-006     0.0000000000000000     
  -2.1333333333333355E-006     0.0000000000000000     
  -1.9333333333333374E-006     0.0000000000000000     
  -1.7333333333333393E-006     0.0000000000000000     
  -1.5333333333333345E-006     0.0000000000000000     
  -1.3333333333333364E-006     0.0000000000000000     
  -1.1333333333333383E-006     0.0000000000000000     
  -9.3333333333333343E-007     0.0000000000000000     
  -7.3333333333333535E-007     0.0000000000000000     
  -5.3333333333333726E-007     0.0000000000000000     
  -3.3333333333333918E-007     0.0000000000000000     
  -1.3333333333333432E-007     0.0000000000000000     
   6.6666666666663770E-008     0.0000000000000000     
   2.6666666666666185E-007     0.0000000000000000     
   4.6666666666666672E-007     0.0000000000000000     
   6.6666666666666480E-007     0.0000000000000000     
   8.6666666666666289E-007     0.0000000000000000     
   1.0666666666666610E-006     0.0000000000000000     
   1.2666666666666658E-006     0.0000000000000000     
   1.4666666666666639E-006     0.0000000000000000     
   1.6666666666666620E-006     0.0000000000000000     
   1.8666666666666669E-006     0.0000000000000000     
   2.0666666666666649E-006     0.0000000000000000     
   2.2666666666666630E-006     0.0000000000000000     
   2.4666666666666611E-006     0.0000000000000000     
   2.6666666666666660E-006     0.0000000000000000     
   2.8666666666666641E-006     0.0000000000000000     
   3.0666666666666622E-006     0.0000000000000000     
   3.2666666666666602E-006     0.0000000000000000     
   3.4666666666666651E-006     0.0000000000000000     
   3.6666666666666632E-006     0.0000000000000000     
   3.8666666666666613E-006     0.0000000000000000     
   4.0666666666666661E-006     0.0000000000000000     
   4.2666666666666642E-006     0.0000000000000000     
   4.4666666666666623E-006     0.0000000000000000     
   4.6666666666666604E-006     0.0000000000000000     
   4.8666666666666652E-006     0.0000000000000000     
   5.0666666666666633E-006     0.0000000000000000     
   5.2666666666666614E-006     0.0000000000000000     
   5.4666666666666663E-006     0.0000000000000000     
   5.6666666666666644E-006     0.0000000000000000     
   5.8666666666666624E-006     0.0000000000000000     
   6.0666666666666605E-006     0.0000000000000000     
   6.2666666666666654E-006     0.0000000000000000     
   6.4666666666666635E-006     0.0000000000000000     
   6.6666666666666616E-006     0.0000000000000000     
   6.8666666666666664E-006     0.0000000000000000     
   7.0666666666666645E-006     0.0000000000000000     
   7.2666666666666626E-006     0.0000000000000000     
   7.4666666666666607E-006     0.0000000000000000     
   7.6666666666666655E-006     0.0000000000000000     
   7.8666666666666636E-006     0.0000000000000000     
   8.0666666666666617E-006     0.0000000000000000     
   8.2666666666666598E-006     0.0000000000000000     
   8.4666666666666647E-006     0.0000000000000000     
   8.6666666666666627E-006     0.0000000000000000     
   8.8666666666666608E-006     0.0000000000000000     
   9.0666666666666657E-006     0.0000000000000000     
   9.2666666666666638E-006     0.0000000000000000     
   9.4666666666666619E-006     0.0000000000000000     
   9.6666666666666599E-006     0.0000000000000000     
   9.8666666666666648E-006     0.0000000000000000     
   1.0066666666666663E-005     0.0000000000000000     
   1.0266666666666661E-005     0.0000000000000000     
   1.0466666666666666E-005     0.0000000000000000     
   1.0666666666666664E-005     0.0000000000000000     
   1.0866666666666662E-005     0.0000000000000000     
   1.1066666666666660E-005     0.0000000000000000     
   1.1266666666666665E-005     0.0000000000000000     
   1.1466666666666663E-005     0.0000000000000000     
   1.1666666666666661E-005     0.0000000000000000     
   1.1866666666666666E-005     0.0000000000000000     
   1.2066666666666664E-005     0.0000000000000000     
   1.2266666666666662E-005     0.0000000000000000     
   1.2466666666666660E-005     0.0000000000000000     
   1.2666666666666665E-005     0.0000000000000000     
   1.2866666666666663E-005     0.0000000000000000     
   1.3066666666666661E-005     0.0000000000000000     
   1.3266666666666666E-005     0.0000000000000000     
   1.3466666666666664E-005     0.0000000000000000     
   1.3666666666666662E-005     0.0000000000000000     
   1.3866666666666660E-005     0.0000000000000000     
   1.4066666666666665E-005     0.0000000000000000     
   1.4266666666666663E-005     0.0000000000000000     
   1.4466666666666661E-005     0.0000000000000000     
   1.4666666666666666E-005     0.0000000000000000     
   1.4866666666666664E-005     0.0000000000000000     
   1.5066666666666662E-005     0.0000000000000000     
   1.5266666666666661E-005     0.0000000000000000     
   1.5466666666666665E-005     0.0000000000000000     
   1.5666666666666663E-005     0.0000000000000000     
   1.5866666666666662E-005     0.0000000000000000     
   1.6066666666666660E-005     0.0000000000000000     
   1.6266666666666665E-005     0.0000000000000000     
   1.6466666666666663E-005     0.0000000000000000     
   1.6666666666666661E-005     0.0000000000000000     
   1.6866666666666666E-005     0.0000000000000000     
   1.7066666666666664E-005     0.0000000000000000     
   1.7266666666666662E-005     0.0000000000000000     
   1.7466666666666660E-005     0.0000000000000000     
   1.7666666666666665E-005     0.0000000000000000     
   1.7866666666666663E-005     0.0000000000000000     
   1.8066666666666661E-005     0.0000000000000000     
   1.8266666666666666E-005     0.0000000000000000     
   1.8466666666666664E-005     0.0000000000000000     
   1.8666666666666662E-005     0.0000000000000000     
   1.8866666666666660E-005     0.0000000000000000     
   1.9066666666666665E-005     0.0000000000000000     
   1.9266666666666663E-005     0.0000000000000000     
   1.9466666666666661E-005     0.0000000000000000     
   1.9666666666666666E-005     0.0000000000000000     
   1.9866666666666664E-005     0.0000000000000000     
   2.0066666666666662E-005     0.0000000000000000     
   2.0266666666666660E-005     0.0000000000000000     
   2.0466666666666665E-005     0.0000000000000000     
   2.0666666666666663E-005     0.0000000000000000     
   2.0866666666666661E-005     0.0000000000000000     
   2.1066666666666659E-005     0.0000000000000000     
   2.1266666666666664E-005     0.0000000000000000     
   2.1466666666666662E-005     0.0000000000000000     
   2.1666666666666660E-005     0.0000000000000000     
   2.1866666666666665E-005     0.0000000000000000     
   2.2066666666666663E-005     0.0000000000000000     
   2.2266666666666661E-005     0.0000000000000000     
   2.2466666666666659E-005    -1.6188678474017418E-038
   2.2666666666666664E-005    -3.8013483067635611E-038
   2.2866666666666662E-005    -5.7231803853984892E-038
   2.3066666666666660E-005    -5.7231803853984892E-038
   2.3266666666666665E-005    -2.0144206325876475E-038
   2.3466666666666663E-005     4.9890148965663597E-038
   2.3666666666666661E-005     1.3068713507349650E-037
   2.3866666666666660E-005     2.2109162523971921E-037
   2.4066666666666664E-005     2.7364240278401476E-037
   2.4266666666666662E-005     2.5460577435654984E-037
   2.4466666666666661E-005     1.4356253441301807E-037
   2.4666666666666665E-005    -5.7632334191445926E-038
   2.4866666666666663E-005    -3.1912292332136559E-037
   2.5066666666666662E-005    -5.8382179089055079E-037
   2.5266666666666660E-005    -7.9280857400069907E-037
   2.5466666666666665E-005    -8.8099719651047880E-037
   2.5666666666666663E-005    -7.9941436222385254E-037
   2.5866666666666661E-005    -5.5004184348100703E-037
   2.6066666666666666E-005    -1.3780782761476920E-037
   2.6266666666666664E-005     4.1486600190425899E-037
   2.6466666666666662E-005     1.0892557079931359E-036
   2.6666666666666660E-005     1.8742415837634864E-036
   2.6866666666666665E-005     2.7441965483750856E-036
   2.7066666666666663E-005     3.6099486041078293E-036
   2.7266666666666661E-005     4.2290457632875005E-036
   2.7466666666666666E-005     4.1749600370365466E-036
   2.7666666666666664E-005     2.8313267309184038E-036
   2.7866666666666662E-005    -4.6836856378629939E-037
   2.8066666666666667E-005    -6.1476108883138648E-036
   2.8266666666666658E-005    -1.3961127721441083E-035
   2.8466666666666663E-005    -2.2545482293261115E-035
   2.8666666666666668E-005    -2.9143851212775764E-035
   2.8866666666666659E-005    -2.9757946566006487E-035
   2.9066666666666664E-005    -1.9955369743847033E-035
   2.9266666666666669E-005     3.5816216583319714E-036
   2.9466666666666660E-005     4.0945372536706270E-035
   2.9666666666666665E-005     8.6865892899742146E-035
   2.9866666666666656E-005     1.2941630310139418E-034
   3.0066666666666661E-005     1.5060288981828699E-034
   3.0266666666666666E-005     1.2972398645183451E-034
   3.0466666666666657E-005     4.9775665437096659E-035
   3.0666666666666662E-005    -9.3874875541734703E-035
   3.0866666666666667E-005    -2.8465672476354144E-034
   3.1066666666666658E-005    -4.7913406878905681E-034
   3.1266666666666663E-005    -6.0842563632779440E-034
   3.1466666666666668E-005    -5.8998869620136800E-034
   3.1666666666666659E-005    -3.5084011024508348E-034
   3.1866666666666664E-005     1.4047244736047686E-034
   3.2066666666666656E-005     8.4050215439594433E-034
   3.2266666666666660E-005     1.6077588884501673E-033
   3.2466666666666665E-005     2.2034878541743867E-033
   3.2666666666666657E-005     2.3281222141142122E-033
   3.2866666666666661E-005     1.6979448354261687E-033
   3.3066666666666666E-005     1.5414624764317288E-034
   3.3266666666666658E-005    -2.2189849104800554E-033
   3.3466666666666662E-005    -5.0044163040503854E-033
   3.3666666666666667E-005    -7.4366819911886751E-033
   3.3866666666666659E-005    -8.5007879666949812E-033
   3.4066666666666664E-005    -7.1650362669731834E-033
   3.4266666666666668E-005    -2.7292745386826954E-033
   3.4466666666666660E-005     4.7784558004376173E-033
   3.4666666666666665E-005     1.4270989249138162E-032
   3.4866666666666656E-005     2.3479770851177683E-032
   3.5066666666666661E-005     2.9176851242211932E-032
   3.5266666666666666E-005     2.7820183824569160E-032
   3.5466666666666657E-005     1.6593413438057755E-032
   3.5666666666666662E-005    -5.3330242804548174E-033
   3.5866666666666667E-005    -3.5640879983704306E-032
   3.6066666666666658E-005    -6.8228818936698754E-032
   3.6266666666666663E-005    -9.3536412973744045E-032
   3.6466666666666668E-005    -1.0013025449513360E-031
   3.6666666666666659E-005    -7.7572441495721100E-032
   3.6866666666666664E-005    -2.0187397784252649E-032
   3.7066666666666669E-005     6.9101529452636237E-032
   3.7266666666666660E-005     1.7605242534920705E-031
   3.7466666666666665E-005     2.7481435740020947E-031
   3.7666666666666656E-005     3.3114061424810909E-031
   3.7866666666666661E-005     3.0951530328478865E-031
   3.8066666666666666E-005     1.8355431274671980E-031
   3.8266666666666657E-005    -5.2210639536687640E-032
   3.8466666666666662E-005    -3.7220676800284288E-031
   3.8666666666666667E-005    -7.1505476525774058E-031
   3.8866666666666658E-005    -9.8765712440834670E-031
   3.9066666666666663E-005    -1.0803057335186887E-030
   3.9266666666666668E-005    -8.9252295600307799E-031
   3.9466666666666659E-005    -3.6609224605794462E-031
   3.9666666666666664E-005     4.8165443741044725E-031
   3.9866666666666655E-005     1.5338138990941769E-030
   4.0066666666666660E-005     2.5694386221403702E-030
   4.0266666666666665E-005     3.2870019393625395E-030
   4.0466666666666656E-005     3.3592720843674783E-030
   4.0666666666666661E-005     2.5154766605901664E-030
   4.0866666666666666E-005     6.3763543777868583E-031
   4.1066666666666657E-005    -2.1505020275412096E-030
   4.1266666666666662E-005    -5.4288493192161590E-030
   4.1466666666666667E-005    -8.4875010425416339E-030
   4.1666666666666658E-005    -1.0413776300149367E-029
   4.1866666666666663E-005    -1.0264251161775619E-029
   4.2066666666666668E-005    -7.3052245595128421E-030
   4.2266666666666660E-005    -1.2816083887806209E-030
   4.2466666666666664E-005     7.3463642286842763E-030
   4.2666666666666656E-005     1.7270876082055295E-029
   4.2866666666666661E-005     2.6377828417084778E-029
   4.3066666666666665E-005     3.2009271648597361E-029
   4.3266666666666657E-005     3.1454158453314197E-029
   4.3466666666666662E-005     2.2619642450613210E-029
   4.3666666666666666E-005     4.7747847021926405E-030
   4.3866666666666658E-005    -2.0794599638023715E-029
   4.4066666666666663E-005    -5.0411556341341704E-029
   4.4266666666666667E-005    -7.8099245824790699E-029
   4.4466666666666659E-005    -9.6269865219349563E-029
   4.4666666666666664E-005    -9.7041362662415709E-029
   4.4866666666666655E-005    -7.4070627696839013E-029
   4.5066666666666660E-005    -2.4630945258316486E-029
   4.5266666666666665E-005     4.8485689591530769E-029
   4.5466666666666656E-005     1.3575763418482747E-028
   4.5666666666666661E-005     2.2093514801919628E-028
   4.5866666666666666E-005     2.8265975828934890E-028
   4.6066666666666657E-005     2.9785657333090374E-028
   4.6266666666666662E-005     2.4668550545113416E-028
   4.6466666666666667E-005     1.1839490629075259E-028
   4.6666666666666658E-005    -8.3012202834956395E-029
   4.6866666666666663E-005    -3.3471128911731941E-028
   4.7066666666666668E-005    -5.9409550995326803E-028
   4.7266666666666659E-005    -8.0219676637967817E-028
   4.7466666666666664E-005    -8.9215218740539360E-028
   4.7666666666666655E-005    -8.0240303347672204E-028
   4.7866666666666660E-005    -4.9307875103320756E-028
   4.8066666666666665E-005     3.7259847187279677E-029
   4.8266666666666656E-005     7.3838285915760567E-028
   4.8466666666666661E-005     1.5029830174621659E-027
   4.8666666666666666E-005     2.1730011413838579E-027
   4.8866666666666657E-005     2.5600893712673763E-027
   4.9066666666666662E-005     2.4800377079429320E-027
   4.9266666666666667E-005     1.7975905951251370E-027
   4.9466666666666658E-005     4.7440960467254406E-028
   4.9666666666666663E-005    -1.3902076858596436E-027
   4.9866666666666655E-005    -3.5379159744698528E-027
   5.0066666666666659E-005    -5.5606161948427697E-027
   5.0266666666666664E-005    -6.9482206011965851E-027
   5.0466666666666656E-005    -7.1759518022846649E-027
   5.0666666666666660E-005    -5.8231358537023050E-027
   5.0866666666666665E-005    -2.7053129631659292E-027
   5.1066666666666657E-005     2.0075381442927340E-027
   5.1266666666666661E-005     7.7192358395529047E-027
   5.1466666666666666E-005     1.3413926417846170E-026
   5.1666666666666658E-005     1.7764121450102816E-026
   5.1866666666666662E-005     1.9346525581425634E-026
   5.2066666666666667E-005     1.6948120340105500E-026
   5.2266666666666659E-005     9.9178381750945077E-027
   5.2466666666666664E-005    -1.5057723418006219E-027
   5.2666666666666655E-005    -1.5976652002021423E-026
   5.2866666666666660E-005    -3.1019443685168808E-026
   5.3066666666666665E-005    -4.3270308713319304E-026
   5.3266666666666656E-005    -4.9004766663476254E-026
   5.3466666666666661E-005    -4.4915804768876292E-026
   5.3666666666666666E-005    -2.9034050268562628E-026
   5.3866666666666657E-005    -1.6135348629438931E-027
   5.4066666666666662E-005     3.4240575383852060E-026
   5.4266666666666667E-005     7.2434755224324636E-026
   5.4466666666666658E-005     1.0442842055702602E-025
   5.4666666666666663E-005     1.2053855028940116E-025
   5.4866666666666668E-005     1.1193598514011110E-025
   5.5066666666666659E-005     7.3072265769308010E-026
   5.5266666666666664E-005     4.0885936567945952E-027
   5.5466666666666655E-005    -8.7381721877903045E-026
   5.5666666666666660E-005    -1.8565148685894116E-025
   5.5866666666666665E-005    -2.6820023391208021E-025
   5.6066666666666656E-005    -3.0896831897486922E-025
   5.6266666666666661E-005    -2.8361358992396725E-025
   5.6466666666666666E-005    -1.7611122493832783E-025
   5.6666666666666657E-005     1.4448495924628149E-026
   5.6866666666666662E-005     2.6844058996913973E-025
   5.7066666666666667E-005     5.4343760013679760E-025
   5.7266666666666658E-005     7.7671279240725426E-025
   5.7466666666666663E-005     8.9354540974939519E-025
   5.7666666666666654E-005     8.2133106102939414E-025
   5.7866666666666659E-005     5.0812715063916701E-025
   5.8066666666666664E-005    -5.7246785401225385E-026
   5.8266666666666655E-005    -8.2779059924798982E-025
   5.8466666666666660E-005    -1.6886376258683609E-024
   5.8666666666666665E-005    -2.4600881736959187E-024
   5.8866666666666656E-005    -2.9170940315369498E-024
   5.9066666666666661E-005    -2.8264065818727423E-024
   5.9266666666666666E-005    -1.9989376406588564E-024
   5.9466666666666657E-005    -3.5054599719354458E-025
   5.9666666666666662E-005     2.0397992550427206E-024
   5.9866666666666667E-005     4.8887276185442965E-024
   6.0066666666666659E-005     7.6993723651002704E-024
   6.0266666666666663E-005     9.7977999598342430E-024
   6.0466666666666655E-005     1.0422642483363512E-023
   6.0666666666666660E-005     8.8663516571336280E-024
   6.0866666666666664E-005     4.6545148157841781E-024
   6.1066666666666656E-005    -2.2633803821679492E-024
   6.1266666666666661E-005    -1.1349879057691152E-023
   6.1466666666666665E-005    -2.1387421735231113E-023
   6.1666666666666657E-005    -3.0502976130045869E-023
   6.1866666666666662E-005    -3.6344084080980367E-023
   6.2066666666666666E-005    -3.6419947256513662E-023
   6.2266666666666658E-005    -2.8590433352435460E-023
   6.2466666666666663E-005    -1.1648560729069553E-023
   6.2666666666666668E-005     1.4095731108227251E-023
   6.2866666666666659E-005     4.6353473101673895E-023
   6.3066666666666664E-005     8.0653965676024919E-023
   6.3266666666666655E-005     1.1053000249025544E-022
   6.3466666666666660E-005     1.2818088515143317E-022
   6.3666666666666665E-005     1.2563311686305898E-022
   6.3866666666666656E-005     9.6322983618685041E-023
   6.4066666666666661E-005     3.6914247499725148E-023
   6.4266666666666666E-005    -5.0943226775874407E-023
   6.4466666666666657E-005    -1.5928940668954480E-022
   6.4666666666666662E-005    -2.7337069689203695E-022
   6.4866666666666667E-005    -3.7236178479702222E-022
   6.5066666666666658E-005    -4.3153049263062870E-022
   6.5266666666666663E-005    -4.2586866751990197E-022
   6.5466666666666654E-005    -3.3493017076121692E-022
   6.5666666666666659E-005    -1.4829770913700834E-022
   6.5866666666666664E-005     1.2919814968770826E-022
   6.6066666666666655E-005     4.7360219913271847E-022
   6.6266666666666660E-005     8.4046250584205281E-022
   6.6466666666666665E-005     1.1669870544246650E-021
   6.6666666666666656E-005     1.3783759276297539E-021
   6.6866666666666661E-005     1.3983634667792942E-021
   6.7066666666666666E-005     1.1632089029378612E-021
   6.7266666666666657E-005     6.3749139696262181E-022
   6.7466666666666662E-005    -1.7075142942466126E-022
   6.7666666666666667E-005    -1.1985866260990586E-021
   6.7866666666666658E-005    -2.3236674707286620E-021
   6.8066666666666663E-005    -3.3694592368204538E-021
   6.8266666666666655E-005    -4.1220049744458270E-021
   6.8466666666666659E-005    -4.3583714305860712E-021
   6.8666666666666664E-005    -3.8847858921956710E-021
   6.8866666666666656E-005    -2.5801156749431916E-021
   6.9066666666666660E-005    -4.3817227231225718E-022
   6.9266666666666665E-005     2.3992248459097691E-021
   6.9466666666666657E-005     5.6269752806615315E-021
   6.9666666666666661E-005     8.7867607919679152E-021
   6.9866666666666666E-005     1.1307374796666625E-020
   7.0066666666666658E-005     1.2575999245478042E-020
   7.0266666666666662E-005     1.2035631393424272E-020
   7.0466666666666654E-005     9.2978752077882908E-021
   7.0666666666666659E-005     4.2547844264254938E-021
   7.0866666666666664E-005    -2.8306203360405219E-021
   7.1066666666666655E-005    -1.1276727108736681E-020
   7.1266666666666660E-005    -1.9997845787660972E-020
   7.1466666666666665E-005    -2.7593614323775278E-020
   7.1666666666666656E-005    -3.2515649161195500E-020
   7.1866666666666661E-005    -3.3300368912695562E-020
   7.2066666666666666E-005    -2.8842143292021772E-020
   7.2266666666666657E-005    -1.8667553570155306E-020
   7.2466666666666662E-005    -3.1617979270300387E-021
   7.2666666666666667E-005     1.6304629755453754E-020
   7.2866666666666658E-005     3.7394870939567568E-020
   7.3066666666666663E-005     5.7000272840947546E-020
   7.3266666666666654E-005     7.1615332880886323E-020
   7.3466666666666659E-005     7.7865632373959176E-020
   7.3666666666666664E-005     7.3126410914261708E-020
   7.3866666666666655E-005     5.6137949977058086E-020
   7.4066666666666660E-005     2.7502724622796747E-020
   7.4266666666666665E-005    -1.0055472482484563E-020
   7.4466666666666656E-005    -5.1773386404884588E-020
   7.4666666666666661E-005    -9.1332339541475604E-020
   7.4866666666666666E-005    -1.2174322763402993E-019
   7.5066666666666657E-005    -1.3655182855026050E-019
   7.5266666666666662E-005    -1.3120137877902317E-019
   7.5466666666666653E-005    -1.0431616063936860E-019