  -3.3333333333333335E-005     0.0000000000000000     
  -3.3133333333333337E-005     0.0000000000000000     
  -3.2933333333333332E-005     0.0000000000000000     
  -3.2733333333333334E-005     0.0000000000000000     
  -3.2533333333333336E-005     0.0000000000000000     
  -3.2333333333333338E-005     0.0000000000000000     
  -3.2133333333333333E-005     0.0000000000000000     
  -3.1933333333333335E-005     0.0000000000000000     
  -3.1733333333333337E-005     0.0000000000000000     
  -3.1533333333333332E-005     0.0000000000000000     
  -3.1333333333333334E-005     0.0000000000000000     
  -3.1133333333333336E-005     0.0000000000000000     
  -3.0933333333333338E-005     0.0000000000000000     
  -3.0733333333333333E-005     0.0000000000000000     
  -3.0533333333333335E-005     0.0000000000000000     
  -3.0333333333333337E-005     0.0000000000000000     
  -3.0133333333333335E-005     0.0000000000000000     
  -2.9933333333333334E-005     0.0000000000000000     
  -2.9733333333333336E-005     0.0000000000000000     
  -2.9533333333333334E-005     0.0000000000000000     
  -2.9333333333333336E-005     0.0000000000000000     
  -2.9133333333333334E-005     0.0000000000000000     
  -2.8933333333333336E-005     0.0000000000000000     
  -2.8733333333333335E-005     0.0000000000000000     
  -2.8533333333333333E-005     0.0000000000000000     
  -2.8333333333333335E-005     0.0000000000000000     
  -2.8133333333333337E-005     0.0000000000000000     
  -2.7933333333333336E-005     0.0000000000000000     
  -2.7733333333333334E-005     0.0000000000000000     
  -2.7533333333333336E-005     0.0000000000000000     
  -2.7333333333333335E-005     0.0000000000000000     
  -2.7133333333333333E-005     0.0000000000000000     
  -2.6933333333333335E-005     0.0000000000000000     
  -2.6733333333333337E-005     0.0000000000000000     
  -2.6533333333333336E-005     0.0000000000000000     
  -2.6333333333333334E-005     0.0000000000000000     
  -2.6133333333333336E-005     0.0000000000000000     
  -2.5933333333333335E-005     0.0000000000000000     
  -2.5733333333333333E-005     0.0000000000000000     
  -2.5533333333333335E-005     0.0000000000000000     
  -2.5333333333333337E-005     0.0000000000000000     
  -2.5133333333333336E-005     0.0000000000000000     
  -2.4933333333333334E-005     0.0000000000000000     
  -2.4733333333333336E-005     0.0000000000000000     
  -2.4533333333333334E-005     0.0000000000000000     
  -2.4333333333333333E-005     0.0000000000000000     
  -2.4133333333333335E-005     0.0000000000000000     
  -2.3933333333333337E-005     0.0000000000000000     
  -2.3733333333333335E-005     0.0000000000000000     
  -2.3533333333333334E-005     0.0000000000000000     
  -2.3333333333333336E-005     0.0000000000000000     
  -2.3133333333333338E-005     0.0000000000000000     
  -2.2933333333333336E-005     0.0000000000000000     
  -2.2733333333333335E-005     0.0000000000000000     
  -2.2533333333333337E-005     0.0000000000000000     
  -2.2333333333333335E-005     0.0000000000000000     
  -2.2133333333333334E-005     0.0000000000000000     
  -2.1933333333333336E-005     0.0000000000000000     
  -2.1733333333333338E-005     0.0000000000000000     
  -2.1533333333333336E-005     0.0000000000000000     
  -2.1333333333333335E-005     0.0000000000000000     
  -2.1133333333333337E-005     0.0000000000000000     
  -2.0933333333333335E-005     0.0000000000000000     
  -2.0733333333333334E-005     0.0000000000000000     
  -2.0533333333333336E-005     0.0000000000000000     
  -2.0333333333333337E-005     0.0000000000000000     
  -2.0133333333333336E-005     0.0000000000000000     
  -1.9933333333333334E-005     0.0000000000000000     
  -1.9733333333333336E-005     0.0000000000000000     
  -1.9533333333333335E-005     0.0000000000000000     
  -1.9333333333333333E-005     0.0000000000000000     
  -1.9133333333333335E-005     0.0000000000000000     
  -1.8933333333333337E-005     0.0000000000000000     
  -1.8733333333333336E-005     0.0000000000000000     
  -1.8533333333333334E-005     0.0000000000000000     
  -1.8333333333333336E-005     0.0000000000000000     
  -1.8133333333333335E-005     0.0000000000000000     
  -1.7933333333333337E-005     0.0000000000000000     
  -1.7733333333333335E-005     0.0000000000000000     
  -1.7533333333333337E-005     0.0000000000000000     
  -1.7333333333333336E-005     0.0000000000000000     
  -1.7133333333333334E-005     0.0000000000000000     
  -1.6933333333333336E-005     0.0000000000000000     
  -1.6733333333333335E-005     0.0000000000000000     
  -1.6533333333333337E-005     0.0000000000000000     
  -1.6333333333333335E-005     0.0000000000000000     
  -1.6133333333333337E-005     0.0000000000000000     
  -1.5933333333333336E-005     0.0000000000000000     
  -1.5733333333333334E-005     0.0000000000000000     
  -1.5533333333333336E-005     0.0000000000000000     
  -1.5333333333333334E-005     0.0000000000000000     
  -1.5133333333333336E-005     0.0000000000000000     
  -1.4933333333333335E-005     0.0000000000000000     
  -1.4733333333333337E-005     0.0000000000000000     
  -1.4533333333333335E-005     0.0000000000000000     
  -1.4333333333333337E-005     0.0000000000000000     
  -1.4133333333333336E-005     0.0000000000000000     
  -1.3933333333333334E-005     0.0000000000000000     
  -1.3733333333333336E-005     0.0000000000000000     
  -1.3533333333333335E-005     0.0000000000000000     
  -1.3333333333333337E-005     0.0000000000000000     
  -1.3133333333333335E-005     0.0000000000000000     
  -1.2933333333333337E-005     0.0000000000000000     
  -1.2733333333333336E-005     0.0000000000000000     
  -1.2533333333333338E-005     0.0000000000000000     
  -1.2333333333333336E-005     0.0000000000000000     
  -1.2133333333333335E-005     0.0000000000000000     
  -1.1933333333333337E-005     0.0000000000000000     
  -1.1733333333333335E-005     0.0000000000000000     
  -1.1533333333333337E-005     0.0000000000000000     
  -1.1333333333333336E-005     0.0000000000000000     
  -1.1133333333333337E-005     0.0000000000000000     
  -1.0933333333333336E-005     0.0000000000000000     
  -1.0733333333333334E-005     0.0000000000000000     
  -1.0533333333333336E-005     0.0000000000000000     
  -1.0333333333333335E-005     0.0000000000000000     
  -1.0133333333333337E-005     0.0000000000000000     
  -9.9333333333333354E-006     0.0000000000000000     
  -9.7333333333333373E-006     0.0000000000000000     
  -9.5333333333333358E-006     0.0000000000000000     
  -9.3333333333333343E-006     0.0000000000000000     
  -9.1333333333333362E-006     0.0000000000000000     
  -8.9333333333333348E-006     0.0000000000000000     
  -8.7333333333333367E-006     0.0000000000000000     
  -8.5333333333333352E-006     0.0000000000000000     
  -8.3333333333333371E-006     0.0000000000000000     
  -8.1333333333333356E-006     0.0000000000000000     
  -7.9333333333333376E-006     0.0000000000000000     
  -7.7333333333333361E-006     0.0000000000000000     
  -7.5333333333333346E-006     0.0000000000000000     
  -7.3333333333333365E-006     0.0000000000000000     
  -7.1333333333333351E-006     0.0000000000000000     
  -6.9333333333333370E-006     0.0000000000000000     
  -6.7333333333333355E-006     0.0000000000000000     
  -6.5333333333333374E-006     0.0000000000000000     
  -6.3333333333333359E-006     0.0000000000000000     
  -6.1333333333333379E-006     0.0000000000000000     
  -5.9333333333333364E-006     0.0000000000000000     
  -5.7333333333333349E-006     0.0000000000000000     
  -5.5333333333333368E-006     0.0000000000000000     
  -5.3333333333333354E-006     0.0000000000000000     
  -5.1333333333333373E-006     0.0000000000000000     
  -4.9333333333333358E-006     0.0000000000000000     
  -4.7333333333333377E-006     0.0000000000000000     
  -4.5333333333333362E-006     0.0000000000000000     
  -4.3333333333333348E-006     0.0000000000000000     
  -4.1333333333333367E-006     0.0000000000000000     
  -3.9333333333333352E-006     0.0000000000000000     
  -3.7333333333333371E-006     0.0000000000000000     
  -3.5333333333333356E-006     0.0000000000000000     
  -3.3333333333333376E-006     0.0000000000000000     
  -3.1333333333333361E-006     0.0000000000000000     
  -2.9333333333333346E-006     0.0000000000000000     
  -2.7333333333333365E-006     0.0000000000000000     
  -2.5333333333333384E-006     0.0000000000000000     
  -2.3333333333333336E-006     0.0000000000000000     
  -2.1333333333333355E-006     0.0000000000000000     
  -1.9333333333333374E-006     0.0000000000000000     
  -1.7333333333333393E-006     0.0000000000000000     
  -1.5333333333333345E-006     0.0000000000000000     
  -1.3333333333333364E-006     0.0000000000000000     
  -1.1333333333333383E-006     0.0000000000000000     
  -9.3333333333333343E-007     0.0000000000000000     
  -7.3333333333333535E-007     0.0000000000000000     
  -5.3333333333333726E-007     0.0000000000000000     
  -3.3333333333333918E-007     0.0000000000000000     
  -1.3333333333333432E-007     0.0000000000000000     
   6.6666666666663770E-008     0.0000000000000000     
   2.6666666666666185E-007     0.0000000000000000     
   4.6666666666666672E-007     0.0000000000000000     
   6.6666666666666480E-007     0.0000000000000000     
   8.6666666666666289E-007     0.0000000000000000     
   1.0666666666666610E-006     0.0000000000000000     
   1.2666666666666658E-006     0.0000000000000000     
   1.4666666666666639E-006     0.0000000000000000     
   1.6666666666666620E-006     0.0000000000000000     
   1.8666666666666669E-006     0.0000000000000000     
   2.0666666666666649E-006     0.0000000000000000     
   2.2666666666666630E-006     0.0000000000000000     
   2.4666666666666611E-006     0.0000000000000000     
   2.6666666666666660E-006     0.0000000000000000     
   2.8666666666666641E-006     0.0000000000000000     
   3.0666666666666622E-006     0.0000000000000000     
   3.2666666666666602E-006     0.0000000000000000     
   3.4666666666666651E-006     0.0000000000000000     
   3.6666666666666632E-006     0.0000000000000000     
   3.8666666666666613E-006     0.0000000000000000     
   4.0666666666666661E-006     0.0000000000000000     
   4.2666666666666642E-006     0.0000000000000000     
   4.4666666666666623E-006     0.0000000000000000     
   4.6666666666666604E-006     0.0000000000000000     
   4.8666666666666652E-006     0.0000000000000000     
   5.0666666666666633E-006     0.0000000000000000     
   5.2666666666666614E-006     0.0000000000000000     
   5.4666666666666663E-006     0.0000000000000000     
   5.6666666666666644E-006     0.0000000000000000     
   5.8666666666666624E-006     0.0000000000000000     
   6.0666666666666605E-006     0.0000000000000000     
   6.2666666666666654E-006     0.0000000000000000     
   6.4666666666666635E-006     0.0000000000000000     
   6.6666666666666616E-006     0.0000000000000000     
   6.8666666666666664E-006     0.0000000000000000     
   7.0666666666666645E-006     0.0000000000000000     
   7.2666666666666626E-006     0.0000000000000000     
   7.4666666666666607E-006     0.0000000000000000     
   7.6666666666666655E-006     0.0000000000000000     
   7.8666666666666636E-006     0.0000000000000000     
   8.0666666666666617E-006     0.0000000000000000     
   8.2666666666666598E-006     0.0000000000000000     
   8.4666666666666647E-006     0.0000000000000000     
   8.6666666666666627E-006     0.0000000000000000     
   8.8666666666666608E-006     0.0000000000000000     
   9.0666666666666657E-006     0.0000000000000000     
   9.2666666666666638E-006     0.0000000000000000     
   9.4666666666666619E-006     0.0000000000000000     
   9.6666666666666599E-006     0.0000000000000000     
   9.8666666666666648E-006     0.0000000000000000     
   1.0066666666666663E-005     0.0000000000000000     
   1.0266666666666661E-005     0.0000000000000000     
   1.0466666666666666E-005     0.0000000000000000     
   1.0666666666666664E-005     0.0000000000000000     
   1.0866666666666662E-005     0.0000000000000000     
   1.1066666666666660E-005     0.0000000000000000     
   1.1266666666666665E-005     0.0000000000000000     
   1.1466666666666663E-005     0.0000000000000000     
   1.1666666666666661E-005     0.0000000000000000     
   1.1866666666666666E-005     0.0000000000000000     
   1.2066666666666664E-005     0.0000000000000000     
   1.2266666666666662E-005     0.0000000000000000     
   1.2466666666666660E-005     0.0000000000000000     
   1.2666666666666665E-005     0.0000000000000000     
   1.2866666666666663E-005     0.0000000000000000     
   1.3066666666666661E-005     0.0000000000000000     
   1.3266666666666666E-005     0.0000000000000000     
   1.3466666666666664E-005     0.0000000000000000     
   1.3666666666666662E-005     0.0000000000000000     
   1.3866666666666660E-005     0.0000000000000000     
   1.4066666666666665E-005     0.0000000000000000     
   1.4266666666666663E-005     0.0000000000000000     
   1.4466666666666661E-005     0.0000000000000000     
   1.4666666666666666E-005     0.0000000000000000     
   1.4866666666666664E-005     0.0000000000000000     
   1.5066666666666662E-005     0.0000000000000000     
   1.5266666666666661E-005     0.0000000000000000     
   1.5466666666666665E-005     0.0000000000000000     
   1.5666666666666663E-005     0.0000000000000000     
   1.5866666666666662E-005     0.0000000000000000     
   1.6066666666666660E-005     0.0000000000000000     
   1.6266666666666665E-005     0.0000000000000000     
   1.6466666666666663E-005     0.0000000000000000     
   1.6666666666666661E-005     0.0000000000000000     
   1.6866666666666666E-005     0.0000000000000000     
   1.7066666666666664E-005     0.0000000000000000     
   1.7266666666666662E-005     0.0000000000000000     
   1.7466666666666660E-005     0.0000000000000000     
   1.7666666666666665E-005     0.0000000000000000     
   1.7866666666666663E-005     0.0000000000000000     
   1.8066666666666661E-005     0.0000000000000000     
   1.8266666666666666E-005     0.0000000000000000     
   1.8466666666666664E-005     0.0000000000000000     
   1.8666666666666662E-005     0.0000000000000000     
   1.8866666666666660E-005     0.0000000000000000     
   1.9066666666666665E-005     0.0000000000000000     
   1.9266666666666663E-005     0.0000000000000000     
   1.9466666666666661E-005     0.0000000000000000     
   1.9666666666666666E-005     0.0000000000000000     
   1.9866666666666664E-005     0.0000000000000000     
   2.0066666666666662E-005     0.0000000000000000     
   2.0266666666666660E-005     0.0000000000000000     
   2.0466666666666665E-005     0.0000000000000000     
   2.0666666666666663E-005     0.0000000000000000     
   2.0866666666666661E-005     0.0000000000000000     
   2.1066666666666659E-005     0.0000000000000000     
   2.1266666666666664E-005     0.0000000000000000     
   2.1466666666666662E-005     0.0000000000000000     
   2.1666666666666660E-005     0.0000000000000000     
   2.1866666666666665E-005     0.0000000000000000     
   2.2066666666666663E-005     0.0000000000000000     
   2.2266666666666661E-005     0.0000000000000000     
   2.2466666666666659E-005    -1.7154464586017797E-038
   2.2666666666666664E-005    -4.2289007232912490E-038
   2.2866666666666662E-005    -5.8443181534842838E-038
   2.3066666666666660E-005    -2.0948283996392234E-038
   2.3266666666666665E-005     6.3646286810788744E-038
   2.3466666666666663E-005     1.5982414346561127E-037
   2.3666666666666661E-005     2.5601110856045191E-037
   2.3866666666666660E-005     2.5691497970110456E-037
   2.4066666666666664E-005     1.2352031178677822E-037
   2.4266666666666662E-005    -1.5227315140230142E-037
   2.4466666666666661E-005    -5.2000683819140205E-037
   2.4666666666666665E-005    -8.6250220917583242E-037
   2.4866666666666663E-005    -1.0195905023612468E-036
   2.5066666666666662E-005    -8.3687239300100523E-037
   2.5266666666666660E-005    -2.3141818598689879E-037
   2.5466666666666665E-005     7.4752179138383193E-037
   2.5666666666666663E-005     1.8845526293340690E-036
   2.5866666666666661E-005     2.8256557096644444E-036
   2.6066666666666666E-005     3.1589979336045577E-036
   2.6266666666666664E-005     2.5502112818968588E-036
   2.6466666666666662E-005     8.9344574912737932E-037
   2.6666666666666660E-005    -1.5755819676516964E-036
   2.6866666666666665E-005    -4.2642808190223991E-036
   2.7066666666666663E-005    -6.3469427025840397E-036
   2.7266666666666661E-005    -7.0234883455966373E-036
   2.7466666666666666E-005    -5.8490791603051230E-036
   2.7666666666666664E-005    -3.0132901569776986E-036
   2.7866666666666662E-005     5.8222058879249925E-037
   2.8066666666666667E-005     3.5631605712097740E-036
   2.8266666666666658E-005     4.6650172034096272E-036
   2.8466666666666663E-005     3.5173561825713484E-036
   2.8666666666666668E-005     1.3202462849510491E-036
   2.8866666666666659E-005     9.9175878667306900E-037
   2.9066666666666664E-005     6.3976409187169470E-036
   2.9266666666666669E-005     2.0515679629851350E-035
   2.9466666666666660E-005     4.2835137547912119E-035
   2.9666666666666665E-005     6.6853577973629020E-035
   2.9866666666666656E-005     7.9019272957574041E-035
   3.0066666666666661E-005     6.0582235255932978E-035
   3.0266666666666666E-005    -6.6468236231750089E-036
   3.0466666666666657E-005    -1.3084343819112638E-034
   3.0666666666666662E-005    -2.9904782914785350E-034
   3.0866666666666667E-005    -4.6837273943151532E-034
   3.1066666666666658E-005    -5.6488941225291590E-034
   3.1266666666666663E-005    -4.9537779359623806E-034
   3.1466666666666668E-005    -1.7467358177145853E-034
   3.1666666666666659E-005     4.3361020315308283E-034
   3.1866666666666664E-005     1.2719803046702232E-033
   3.2066666666666656E-005     2.1553642174776761E-033
   3.2266666666666660E-005     2.7687375370787304E-033
   3.2466666666666665E-005     2.7144315347806639E-033
   3.2666666666666657E-005     1.6179458326969886E-033
   3.2866666666666661E-005    -7.1680777667704399E-034
   3.3066666666666666E-005    -4.1354434928065330E-033
   3.3266666666666658E-005    -7.9999399458523443E-033
   3.3466666666666662E-005    -1.1163863071643181E-032
   3.3666666666666667E-005    -1.2120278336250811E-032
   3.3866666666666659E-005    -9.3554002777336162E-033
   3.4066666666666664E-005    -1.8828023423525123E-033
   3.4266666666666668E-005     1.0143730135749229E-032
   3.4466666666666660E-005     2.4916918489549504E-032
   3.4666666666666665E-005     3.8789130096378835E-032
   3.4866666666666656E-005     4.6630185817670224E-032
   3.5066666666666661E-005     4.2859914053050450E-032
   3.5266666666666666E-005     2.3113319303516466E-032
   3.5466666666666657E-005    -1.3737181101382437E-032
   3.5666666666666662E-005    -6.3719604974529197E-032
   3.5866666666666667E-005    -1.1674925256773700E-031
   3.6066666666666658E-005    -1.5716849651638277E-031
   3.6266666666666663E-005    -1.6633256819078876E-031
   3.6466666666666668E-005    -1.2727460547511275E-031
   3.6666666666666659E-005    -3.0825079462425034E-032
   3.6866666666666664E-005     1.1816106830284860E-031
   3.7066666666666669E-005     2.9639514063752077E-031
   3.7266666666666660E-005     4.6168401090410144E-031
   3.7466666666666665E-005     5.5812175552465804E-031
   3.7666666666666656E-005     5.2758015534114143E-031
   3.7866666666666661E-005     3.2643821366685364E-031
   3.8066666666666666E-005    -5.5512961693924446E-032
   3.8266666666666657E-005    -5.7886123745508582E-031
   3.8466666666666662E-005    -1.1469245718826142E-030
   3.8666666666666667E-005    -1.6121132016442572E-030
   3.8866666666666658E-005    -1.7995746460241272E-030
   3.9066666666666663E-005    -1.5474806666145772E-030
   3.9266666666666668E-005    -7.5825408861091158E-031
   3.9466666666666659E-005     5.5011198403792900E-031
   3.9666666666666664E-005     2.2072112604486071E-030
   3.9866666666666655E-005     3.8832408859640235E-030
   4.0066666666666660E-005     5.1239719759123137E-030
   4.0266666666666665E-005     5.4320383883701658E-030
   4.0466666666666656E-005     4.3875181823537860E-030
   4.0666666666666661E-005     1.7877911144932923E-030
   4.0866666666666666E-005    -2.2248613551459778E-030
   4.1066666666666657E-005    -7.0859363704855886E-030
   4.1266666666666662E-005    -1.1817890572432572E-029
   4.1466666666666667E-005    -1.5150154874753750E-029
   4.1666666666666658E-005    -1.5752597798420230E-029
   4.1866666666666663E-005    -1.2556514046444074E-029
   4.2066666666666668E-005    -5.1073894181645858E-030
   4.2266666666666660E-005     6.1301710660918870E-030
   4.2466666666666664E-005     1.9605210003579228E-029
   4.2666666666666656E-005     3.2731402090510893E-029
   4.2866666666666661E-005     4.2205192922431997E-029
   4.3066666666666665E-005     4.4588513173017973E-029
   4.3266666666666657E-005     3.7089384331608178E-029
   4.3466666666666662E-005     1.8409711560092387E-029
   4.3666666666666666E-005    -1.0519877736808260E-029
   4.3866666666666658E-005    -4.6117969373494330E-029
   4.4066666666666663E-005    -8.2221536370412520E-029
   4.4266666666666667E-005    -1.1075846165357353E-028
   4.4466666666666659E-005    -1.2302850114395385E-028
   4.4666666666666664E-005    -1.1146497701660983E-028
   4.4866666666666655E-005    -7.1613309606671034E-029
   4.5066666666666660E-005    -3.9527425066739056E-030
   4.5266666666666665E-005     8.4869377080329006E-029
   4.5466666666666656E-005     1.8180002284506675E-028
   4.5666666666666661E-005     2.6843784898564288E-028
   4.5866666666666666E-005     3.2348612680707993E-028
   4.6066666666666657E-005     3.2643790333634502E-028
   4.6266666666666662E-005     2.6203759859445522E-028
   4.6466666666666667E-005     1.2479624001753397E-028
   4.6666666666666658E-005    -7.7348151202072906E-029
   4.6866666666666663E-005    -3.2117891088195263E-028
   4.7066666666666668E-005    -5.6897565383687392E-028
   4.7266666666666659E-005    -7.7239771901864945E-028
   4.7466666666666664E-005    -8.7944538311481271E-028
   4.7666666666666655E-005    -8.4383291621665112E-028
   4.7866666666666660E-005    -6.3545846662762964E-028
   4.8066666666666665E-005    -2.5011837928050719E-028
   4.8266666666666656E-005     2.8366456408958433E-028
   4.8466666666666661E-005     9.0271870574877695E-028
   4.8666666666666666E-005     1.5136626841897820E-027
   4.8866666666666657E-005     2.0041402260918516E-027
   4.9066666666666662E-005     2.2599304931327035E-027
   4.9266666666666667E-005     2.1855591675862348E-027
   4.9466666666666658E-005     1.7247950654591660E-027
   4.9666666666666663E-005     8.7675562935448150E-028
   4.9866666666666655E-005    -2.9642719627442814E-028
   5.0066666666666659E-005    -1.6731300687710340E-027
   5.0266666666666664E-005    -3.0874101455985681E-027
   5.0466666666666656E-005    -4.3533435425297310E-027
   5.0666666666666660E-005    -5.2931272515407264E-027
   5.0866666666666665E-005    -5.7615191918055353E-027
   5.1066666666666657E-005    -5.6589484000133488E-027
   5.1266666666666661E-005    -4.9279197043483858E-027
   5.1466666666666666E-005    -3.5322656811990095E-027
   5.1666666666666658E-005    -1.4259049899718555E-027
   5.1866666666666662E-005     1.4745682322486655E-027
   5.2066666666666667E-005     5.2931461256541814E-027
   5.2266666666666659E-005     1.0151727729772760E-026
   5.2466666666666664E-005     1.6065572957925760E-026
   5.2666666666666655E-005     2.2775727047580705E-026
   5.2866666666666660E-005     2.9540785548090242E-026
   5.3066666666666665E-005     3.4939657138785516E-026
   5.3266666666666656E-005     3.6765642104266743E-026
   5.3466666666666661E-005     3.2111230259482600E-026
   5.3666666666666666E-005     1.7741429373126068E-026
   5.3866666666666657E-005    -9.1785075658112691E-027
   5.4066666666666662E-005    -5.0004644779355975E-026
   5.4266666666666667E-005    -1.0329392147877758E-025
   5.4466666666666658E-005    -1.6348069902912435E-025
   5.4666666666666663E-005    -2.1991982644887150E-025
   5.4866666666666668E-005    -2.5676258895108733E-025
   5.5066666666666659E-005    -2.5414968441776904E-025
   5.5266666666666664E-005    -1.9110395785036071E-025
   5.5466666666666655E-005    -5.0251416494246245E-026
   5.5666666666666660E-005     1.7591235803450227E-025
   5.5866666666666665E-005     4.7803190988975911E-025
   5.6066666666666656E-005     8.2358483663561057E-025
   5.6266666666666661E-005     1.1531727470777926E-024
   5.6466666666666666E-005     1.3815893943367997E-024
   5.6666666666666657E-005     1.4056911657511778E-024
   5.6866666666666662E-005     1.1203703329168925E-024
   5.7066666666666667E-005     4.4256206118546729E-025
   5.7266666666666658E-005    -6.5876216194718884E-025
   5.7466666666666663E-005    -2.1310158331591051E-024
   5.7666666666666654E-005    -3.8115913005761073E-024
   5.7866666666666659E-005    -5.4151565887036239E-024
   5.8066666666666664E-005    -6.5437266376922231E-024
   5.8266666666666655E-005    -6.7272101622202939E-024
   5.8466666666666660E-005    -5.4984086299056708E-024
   5.8666666666666665E-005    -2.5001905094585077E-024
   5.8866666666666656E-005     2.3857563743948847E-024
   5.9066666666666661E-005     8.9086085692436020E-024
   5.9266666666666666E-005     1.6345251598720920E-023
   5.9466666666666657E-005     2.3458850565483896E-023
   5.9666666666666662E-005     2.8554114196359085E-023
   5.9866666666666667E-005     2.9657023783392202E-023
   6.0066666666666659E-005     2.4830504552542277E-023
   6.0266666666666663E-005     1.2612157480240640E-023
   6.0466666666666655E-005    -7.4721338816032110E-024
   6.0666666666666660E-005    -3.4399857493972662E-023
   6.0866666666666664E-005    -6.5260985941319733E-023
   6.1066666666666656E-005    -9.5115338546987540E-023
   6.1266666666666661E-005    -1.1722706554412181E-022
   6.1466666666666665E-005    -1.2377419453889825E-022
   6.1666666666666657E-005    -1.0706839248572426E-022
   6.1866666666666662E-005    -6.1225129373998344E-023
   6.2066666666666666E-005     1.5892768872095199E-023
   6.2266666666666658E-005     1.2076029149707258E-022
   6.2466666666666663E-005     2.4271374457962280E-022
   6.2666666666666668E-005     3.6338560792466372E-022
   6.2866666666666659E-005     4.5751135517593133E-022
   6.3066666666666664E-005     4.9545907357036842E-022
   6.3266666666666655E-005     4.4760826042905090E-022
   6.3466666666666660E-005     2.9037480196335483E-022
   6.3666666666666665E-005     1.3270735640381686E-023
   6.3866666666666656E-005    -3.7404462074536313E-022
   6.4066666666666661E-005    -8.3614232487182804E-022
   6.4266666666666666E-005    -1.3092768620163825E-021
   6.4466666666666657E-005    -1.7035409091520975E-021
   6.4666666666666662E-005    -1.9109972413249000E-021
   6.4866666666666667E-005    -1.8203385693065149E-021
   6.5066666666666658E-005    -1.3375356014462779E-021
   6.5266666666666663E-005    -4.1057408082818319E-022
   6.5466666666666654E-005     9.4508545476514089E-022
   6.5666666666666659E-005     2.6250090043746248E-021
   6.5866666666666664E-005     4.4238107874443923E-021
   6.6066666666666655E-005     6.0383457702160769E-021
   6.6266666666666660E-005     7.0907885046413212E-021
   6.6466666666666665E-005     7.1741366448788421E-021
   6.6666666666666656E-005     5.9193016361519817E-021
   6.6866666666666661E-005     3.0785695421888176E-021
   6.7066666666666666E-005    -1.3846363277735878E-021
   6.7266666666666657E-005    -7.2143736502420050E-021
   6.7466666666666662E-005    -1.3807266472992460E-020
   6.7666666666666667E-005    -2.0203350086679249E-020
   6.7866666666666658E-005    -2.5139947826524379E-020
   6.8066666666666663E-005    -2.7180101565681191E-020
   6.8266666666666655E-005    -2.4917132511366443E-020
   6.8466666666666659E-005    -1.7243639693827695E-020
   6.8666666666666664E-005    -3.6575067097867894E-021
   6.8866666666666656E-005     1.5438246921096821E-020
   6.9066666666666660E-005     3.8498084307468955E-020
   6.9266666666666665E-005     6.2722663082149643E-020
   6.9466666666666657E-005     8.4135629105368448E-020
   6.9666666666666661E-005     9.7897090451940784E-020
   6.9866666666666666E-005     9.8876239652656288E-020
   7.0066666666666658E-005     8.2467160573409242E-020
   7.0266666666666662E-005     4.5583538951187730E-020
   7.0466666666666654E-005    -1.2283957637219940E-020
   7.0666666666666659E-005    -8.8112539007112944E-020
   7.0866666666666664E-005    -1.7469453538706136E-019
   7.1066666666666655E-005    -2.6049892383007312E-019
   7.1266666666666660E-005    -3.3023826278047746E-019
   7.1466666666666665E-005    -3.6627193047390659E-019
   7.1666666666666656E-005    -3.5087440281093240E-019
   7.1866666666666661E-005    -2.6925977464338123E-019
   7.2066666666666666E-005    -1.1308953548413864E-019
   7.2266666666666657E-005     1.1597695158392277E-019
   7.2466666666666662E-005     4.0327629461616670E-019
   7.2666666666666667E-005     7.1936030804373131E-019
   7.2866666666666658E-005     1.0201303132007954E-018
   7.3066666666666663E-005     1.2494740996445182E-018
   7.3266666666666654E-005     1.3447608601148345E-018
   7.3466666666666659E-005     1.2451886836860341E-018
   7.3666666666666664E-005     9.0250616067394403E-019
   7.3866666666666655E-005     2.9309299359074777E-019
   7.4066666666666660E-005    -5.7015548540415928E-019
   7.4266666666666665E-005    -1.6281448729645294E-018
   7.4466666666666656E-005    -2.7703682853490706E-018
   7.4666666666666661E-005    -3.8364132230035766E-018
   7.4866666666666666E-005    -4.6260485211431286E-018
   7.5066666666666657E-005    -4.9189519352772369E-018
   7.5266666666666662E-005    -4.5039248162767185E-018
   7.5466666666666653E-005    -3.2158805254397714E-018