  -3.3333333333333335E-005     0.0000000000000000     
  -3.3133333333333337E-005     0.0000000000000000     
  -3.2933333333333332E-005     0.0000000000000000     
  -3.2733333333333334E-005     0.0000000000000000     
  -3.2533333333333336E-005     0.0000000000000000     
  -3.2333333333333338E-005     0.0000000000000000     
  -3.2133333333333333E-005     0.0000000000000000     
  -3.1933333333333335E-005     0.0000000000000000     
  -3.1733333333333337E-005     0.0000000000000000     
  -3.1533333333333332E-005     0.0000000000000000     
  -3.1333333333333334E-005     0.0000000000000000     
  -3.1133333333333336E-005     0.0000000000000000     
  -3.0933333333333338E-005     0.0000000000000000     
  -3.0733333333333333E-005     0.0000000000000000     
  -3.0533333333333335E-005     0.0000000000000000     
  -3.0333333333333337E-005     0.0000000000000000     
  -3.0133333333333335E-005     0.0000000000000000     
  -2.9933333333333334E-005     0.0000000000000000     
  -2.9733333333333336E-005     0.0000000000000000     
  -2.9533333333333334E-005     0.0000000000000000     
  -2.9333333333333336E-005     0.0000000000000000     
  -2.9133333333333334E-005     0.0000000000000000     
  -2.8933333333333336E-005     0.0000000000000000     
  -2.8733333333333335E-005     0.0000000000000000     
  -2.8533333333333333E-005     0.0000000000000000     
  -2.8333333333333335E-005     0.0000000000000000     
  -2.8133333333333337E-005     0.0000000000000000     
  -2.7933333333333336E-005     0.0000000000000000     
  -2.7733333333333334E-005     0.0000000000000000     
  -2.7533333333333336E-005     0.0000000000000000     
  -2.7333333333333335E-005     0.0000000000000000     
  -2.7133333333333333E-005     0.0000000000000000     
  -2.6933333333333335E-005     0.0000000000000000     
  -2.6733333333333337E-005     0.0000000000000000     
  -2.6533333333333336E-005     0.0000000000000000     
  -2.6333333333333334E-005     0.0000000000000000     
  -2.6133333333333336E-005     0.0000000000000000     
  -2.5933333333333335E-005     0.0000000000000000     
  -2.5733333333333333E-005     0.0000000000000000     
  -2.5533333333333335E-005     0.0000000000000000     
  -2.5333333333333337E-005     0.0000000000000000     
  -2.5133333333333336E-005     0.0000000000000000     
  -2.4933333333333334E-005     0.0000000000000000     
  -2.4733333333333336E-005     0.0000000000000000     
  -2.4533333333333334E-005     0.0000000000000000     
  -2.4333333333333333E-005     0.0000000000000000     
  -2.4133333333333335E-005     0.0000000000000000     
  -2.3933333333333337E-005     0.0000000000000000     
  -2.3733333333333335E-005     0.0000000000000000     
  -2.3533333333333334E-005     0.0000000000000000     
  -2.3333333333333336E-005     0.0000000000000000     
  -2.3133333333333338E-005     0.0000000000000000     
  -2.2933333333333336E-005     0.0000000000000000     
  -2.2733333333333335E-005     0.0000000000000000     
  -2.2533333333333337E-005     0.0000000000000000     
  -2.2333333333333335E-005     0.0000000000000000     
  -2.2133333333333334E-005     0.0000000000000000     
  -2.1933333333333336E-005     0.0000000000000000     
  -2.1733333333333338E-005     0.0000000000000000     
  -2.1533333333333336E-005     0.0000000000000000     
  -2.1333333333333335E-005     0.0000000000000000     
  -2.1133333333333337E-005     0.0000000000000000     
  -2.0933333333333335E-005     0.0000000000000000     
  -2.0733333333333334E-005     0.0000000000000000     
  -2.0533333333333336E-005     0.0000000000000000     
  -2.0333333333333337E-005     0.0000000000000000     
  -2.0133333333333336E-005     0.0000000000000000     
  -1.9933333333333334E-005     0.0000000000000000     
  -1.9733333333333336E-005     0.0000000000000000     
  -1.9533333333333335E-005     0.0000000000000000     
  -1.9333333333333333E-005     0.0000000000000000     
  -1.9133333333333335E-005     0.0000000000000000     
  -1.8933333333333337E-005     0.0000000000000000     
  -1.8733333333333336E-005     0.0000000000000000     
  -1.8533333333333334E-005     0.0000000000000000     
  -1.8333333333333336E-005     0.0000000000000000     
  -1.8133333333333335E-005     0.0000000000000000     
  -1.7933333333333337E-005     0.0000000000000000     
  -1.7733333333333335E-005     0.0000000000000000     
  -1.7533333333333337E-005     0.0000000000000000     
  -1.7333333333333336E-005     0.0000000000000000     
  -1.7133333333333334E-005     0.0000000000000000     
  -1.6933333333333336E-005     0.0000000000000000     
  -1.6733333333333335E-005     0.0000000000000000     
  -1.6533333333333337E-005     0.0000000000000000     
  -1.6333333333333335E-005     0.0000000000000000     
  -1.6133333333333337E-005     0.0000000000000000     
  -1.5933333333333336E-005     0.0000000000000000     
  -1.5733333333333334E-005     0.0000000000000000     
  -1.5533333333333336E-005     0.0000000000000000     
  -1.5333333333333334E-005     0.0000000000000000     
  -1.5133333333333336E-005     0.0000000000000000     
  -1.4933333333333335E-005     0.0000000000000000     
  -1.4733333333333337E-005     0.0000000000000000     
  -1.4533333333333335E-005     0.0000000000000000     
  -1.4333333333333337E-005     0.0000000000000000     
  -1.4133333333333336E-005     0.0000000000000000     
  -1.3933333333333334E-005     0.0000000000000000     
  -1.3733333333333336E-005     0.0000000000000000     
  -1.3533333333333335E-005     0.0000000000000000     
  -1.3333333333333337E-005     0.0000000000000000     
  -1.3133333333333335E-005     0.0000000000000000     
  -1.2933333333333337E-005     0.0000000000000000     
  -1.2733333333333336E-005     0.0000000000000000     
  -1.2533333333333338E-005     0.0000000000000000     
  -1.2333333333333336E-005     0.0000000000000000     
  -1.2133333333333335E-005     0.0000000000000000     
  -1.1933333333333337E-005     0.0000000000000000     
  -1.1733333333333335E-005     0.0000000000000000     
  -1.1533333333333337E-005     0.0000000000000000     
  -1.1333333333333336E-005     0.0000000000000000     
  -1.1133333333333337E-005     0.0000000000000000     
  -1.0933333333333336E-005     0.0000000000000000     
  -1.0733333333333334E-005     0.0000000000000000     
  -1.0533333333333336E-005     0.0000000000000000     
  -1.0333333333333335E-005     0.0000000000000000     
  -1.0133333333333337E-005     0.0000000000000000     
  -9.9333333333333354E-006     0.0000000000000000     
  -9.7333333333333373E-006     0.0000000000000000     
  -9.5333333333333358E-006     0.0000000000000000     
  -9.3333333333333343E-006     0.0000000000000000     
  -9.1333333333333362E-006     0.0000000000000000     
  -8.9333333333333348E-006     0.0000000000000000     
  -8.7333333333333367E-006     0.0000000000000000     
  -8.5333333333333352E-006     0.0000000000000000     
  -8.3333333333333371E-006     0.0000000000000000     
  -8.1333333333333356E-006     0.0000000000000000     
  -7.9333333333333376E-006     0.0000000000000000     
  -7.7333333333333361E-006     0.0000000000000000     
  -7.5333333333333346E-006     0.0000000000000000     
  -7.3333333333333365E-006     0.0000000000000000     
  -7.1333333333333351E-006     0.0000000000000000     
  -6.9333333333333370E-006     0.0000000000000000     
  -6.7333333333333355E-006     0.0000000000000000     
  -6.5333333333333374E-006     0.0000000000000000     
  -6.3333333333333359E-006     0.0000000000000000     
  -6.1333333333333379E-006     0.0000000000000000     
  -5.9333333333333364E-006     0.0000000000000000     
  -5.7333333333333349E-006     0.0000000000000000     
  -5.5333333333333368E-006     0.0000000000000000     
  -5.3333333333333354E-006     0.0000000000000000     
  -5.1333333333333373E-006     0.0000000000000000     
  -4.9333333333333358E-006     0.0000000000000000     
  -4.7333333333333377E-006     0.0000000000000000     
  -4.5333333333333362E-006     0.0000000000000000     
  -4.3333333333333348E-006     0.0000000000000000     
  -4.1333333333333367E-006     0.0000000000000000     
  -3.9333333333333352E-006     0.0000000000000000     
  -3.7333333333333371E-006     0.0000000000000000     
  -3.5333333333333356E-006     0.0000000000000000     
  -3.3333333333333376E-006     0.0000000000000000     
  -3.1333333333333361E-006     0.0000000000000000     
  -2.9333333333333346E-006     0.0000000000000000     
  -2.7333333333333365E-006     0.0000000000000000     
  -2.5333333333333384E-006     0.0000000000000000     
  -2.3333333333333336E-006     0.0000000000000000     
  -2.1333333333333355E-006     0.0000000000000000     
  -1.9333333333333374E-006     0.0000000000000000     
  -1.7333333333333393E-006     0.0000000000000000     
  -1.5333333333333345E-006     0.0000000000000000     
  -1.3333333333333364E-006     0.0000000000000000     
  -1.1333333333333383E-006     0.0000000000000000     
  -9.3333333333333343E-007     0.0000000000000000     
  -7.3333333333333535E-007     0.0000000000000000     
  -5.3333333333333726E-007     0.0000000000000000     
  -3.3333333333333918E-007     0.0000000000000000     
  -1.3333333333333432E-007     0.0000000000000000     
   6.6666666666663770E-008     0.0000000000000000     
   2.6666666666666185E-007     0.0000000000000000     
   4.6666666666666672E-007     0.0000000000000000     
   6.6666666666666480E-007     0.0000000000000000     
   8.6666666666666289E-007     0.0000000000000000     
   1.0666666666666610E-006     0.0000000000000000     
   1.2666666666666658E-006     0.0000000000000000     
   1.4666666666666639E-006     0.0000000000000000     
   1.6666666666666620E-006     0.0000000000000000     
   1.8666666666666669E-006     0.0000000000000000     
   2.0666666666666649E-006     0.0000000000000000     
   2.2666666666666630E-006     0.0000000000000000     
   2.4666666666666611E-006     0.0000000000000000     
   2.6666666666666660E-006     0.0000000000000000     
   2.8666666666666641E-006     0.0000000000000000     
   3.0666666666666622E-006     0.0000000000000000     
   3.2666666666666602E-006     0.0000000000000000     
   3.4666666666666651E-006     0.0000000000000000     
   3.6666666666666632E-006     0.0000000000000000     
   3.8666666666666613E-006     0.0000000000000000     
   4.0666666666666661E-006     0.0000000000000000     
   4.2666666666666642E-006     0.0000000000000000     
   4.4666666666666623E-006     0.0000000000000000     
   4.6666666666666604E-006     0.0000000000000000     
   4.8666666666666652E-006     0.0000000000000000     
   5.0666666666666633E-006     0.0000000000000000     
   5.2666666666666614E-006     0.0000000000000000     
   5.4666666666666663E-006     0.0000000000000000     
   5.6666666666666644E-006     0.0000000000000000     
   5.8666666666666624E-006     0.0000000000000000     
   6.0666666666666605E-006     0.0000000000000000     
   6.2666666666666654E-006     0.0000000000000000     
   6.4666666666666635E-006     0.0000000000000000     
   6.6666666666666616E-006     0.0000000000000000     
   6.8666666666666664E-006     0.0000000000000000     
   7.0666666666666645E-006     0.0000000000000000     
   7.2666666666666626E-006     0.0000000000000000     
   7.4666666666666607E-006     0.0000000000000000     
   7.6666666666666655E-006     0.0000000000000000     
   7.8666666666666636E-006     0.0000000000000000     
   8.0666666666666617E-006     0.0000000000000000     
   8.2666666666666598E-006     0.0000000000000000     
   8.4666666666666647E-006     0.0000000000000000     
   8.6666666666666627E-006     0.0000000000000000     
   8.8666666666666608E-006     0.0000000000000000     
   9.0666666666666657E-006     0.0000000000000000     
   9.2666666666666638E-006     0.0000000000000000     
   9.4666666666666619E-006     0.0000000000000000     
   9.6666666666666599E-006     0.0000000000000000     
   9.8666666666666648E-006     0.0000000000000000     
   1.0066666666666663E-005     0.0000000000000000     
   1.0266666666666661E-005     0.0000000000000000     
   1.0466666666666666E-005     0.0000000000000000     
   1.0666666666666664E-005     0.0000000000000000     
   1.0866666666666662E-005     0.0000000000000000     
   1.1066666666666660E-005     0.0000000000000000     
   1.1266666666666665E-005     0.0000000000000000     
   1.1466666666666663E-005     0.0000000000000000     
   1.1666666666666661E-005     0.0000000000000000     
   1.1866666666666666E-005     0.0000000000000000     
   1.2066666666666664E-005     0.0000000000000000     
   1.2266666666666662E-005     0.0000000000000000     
   1.2466666666666660E-005     0.0000000000000000     
   1.2666666666666665E-005     0.0000000000000000     
   1.2866666666666663E-005     0.0000000000000000     
   1.3066666666666661E-005     0.0000000000000000     
   1.3266666666666666E-005     0.0000000000000000     
   1.3466666666666664E-005     0.0000000000000000     
   1.3666666666666662E-005     0.0000000000000000     
   1.3866666666666660E-005     0.0000000000000000     
   1.4066666666666665E-005     0.0000000000000000     
   1.4266666666666663E-005     0.0000000000000000     
   1.4466666666666661E-005     0.0000000000000000     
   1.4666666666666666E-005     0.0000000000000000     
   1.4866666666666664E-005     0.0000000000000000     
   1.5066666666666662E-005     0.0000000000000000     
   1.5266666666666661E-005     0.0000000000000000     
   1.5466666666666665E-005     0.0000000000000000     
   1.5666666666666663E-005    -1.7551665438327595E-038
   1.5866666666666662E-005    -3.9394019893912992E-038
   1.6066666666666660E-005    -6.6957291637876993E-038
   1.6266666666666665E-005    -9.4520563381840995E-038
   1.6466666666666663E-005    -8.0218272262842180E-038
   1.6666666666666661E-005    -6.4874665044615878E-038
   1.6866666666666666E-005     0.0000000000000000     
   1.7066666666666664E-005     9.5436452058123695E-038
   1.7266666666666662E-005     2.1947750877502045E-037
   1.7466666666666660E-005     3.3779763559185242E-037
   1.7666666666666665E-005     4.1607138763288348E-037
   1.7866666666666663E-005     4.8290327987378498E-037
   1.8066666666666661E-005     4.3713593035636842E-037
   1.8266666666666666E-005     3.5522395908644155E-037
   1.8466666666666664E-005     2.0466096354038986E-037
   1.8666666666666662E-005    -1.2897138523377719E-037
   1.8866666666666660E-005    -5.5413843304277734E-037
   1.9066666666666665E-005    -9.1065450141720352E-037
   1.9266666666666663E-005    -1.1184267511223522E-036
   1.9466666666666661E-005    -9.8294392428842759E-037
   1.9666666666666666E-005    -6.6439169938483678E-037
   1.9866666666666664E-005    -1.6277014367390605E-037
   2.0066666666666662E-005     5.2192076526514003E-037
   2.0266666666666660E-005     1.2066116966249615E-036
   2.0466666666666665E-005     1.8913025383016813E-036
   2.0666666666666663E-005     2.0267851857694025E-036
   2.0866666666666661E-005     1.4299905100077640E-036
   2.1066666666666659E-005     7.4166113521129239E-037
   2.1266666666666664E-005    -3.1280690119985906E-037
   2.1466666666666662E-005    -1.7334136440672412E-036
   2.1666666666666660E-005    -2.9709509440234063E-036
   2.1866666666666665E-005    -3.4762106517009065E-036
   2.2066666666666663E-005    -2.8830543296928164E-036
   2.2266666666666661E-005    -2.2898980076847263E-036
   2.2466666666666659E-005    -2.4290190985890976E-036
   2.2666666666666664E-005    -2.5681401894934688E-036
   2.2866666666666662E-005    -4.1718161062227629E-036
   2.3066666666666660E-005    -5.7754920229520570E-036
   2.3266666666666665E-005    -9.5760007165173455E-036
   2.3466666666666663E-005    -1.5573341469453815E-035
   2.3666666666666661E-005    -2.0838405347576433E-035
   2.3866666666666660E-005    -1.8780694737842030E-035
   2.4066666666666664E-005    -1.0864765542272750E-035
   2.4266666666666662E-005     2.9093843915258483E-036
   2.4466666666666661E-005     1.9612645411903920E-035
   2.4666666666666665E-005     3.9245018236326279E-035
   2.4866666666666663E-005     6.1806494255215159E-035
   2.5066666666666662E-005     6.0935090191046020E-035
   2.5266666666666660E-005     2.6378928361495318E-035
   2.5466666666666665E-005    -4.0397444658457381E-035
   2.5666666666666663E-005    -1.4671680192173947E-034
   2.5866666666666661E-005    -2.8818548074453822E-034
   2.6066666666666666E-005    -4.5308699660250616E-034
   2.6266666666666664E-005    -5.7698102469005397E-034
   2.6466666666666662E-005    -6.4229282243643456E-034
   2.6666666666666660E-005    -5.9044025133597685E-034
   2.6866666666666665E-005    -3.7455754548284629E-034
   2.7066666666666663E-005     1.7071776777445306E-035
   2.7266666666666661E-005     5.3758189788159682E-034
   2.7466666666666666E-005     1.0815249650755692E-033
   2.7666666666666664E-005     1.5200200819402879E-033
   2.7866666666666662E-005     1.6890369759698358E-033
   2.8066666666666667E-005     1.4011128590473633E-033
   2.8266666666666658E-005     6.2109824603137600E-034
   2.8466666666666663E-005    -6.7443979194879130E-034
   2.8666666666666668E-005    -2.3449038653401388E-033
   2.8866666666666659E-005    -4.1090995623786516E-033
   2.9066666666666664E-005    -5.5921006639821571E-033
   2.9266666666666669E-005    -6.4189808592329866E-033
   2.9466666666666660E-005    -5.8398886283217566E-033
   2.9666666666666665E-005    -3.7142263980244749E-033
   2.9866666666666656E-005    -3.7005448376423535E-034
   3.0066666666666661E-005     4.2863586003528831E-033
   3.0266666666666666E-005     9.3176977657989299E-033
   3.0466666666666657E-005     1.3599185411435593E-032
   3.0666666666666662E-005     1.6006040951470936E-032
   3.0866666666666667E-005     1.5226025511935483E-032
   3.1066666666666658E-005     9.9468980148078523E-033
   3.1266666666666663E-005     5.4358311796678115E-034
   3.1466666666666668E-005    -1.2608991581973115E-032
   3.1666666666666659E-005    -2.8573514072973008E-032
   3.1866666666666664E-005    -4.5662815680396899E-032
   3.2066666666666656E-005    -5.9002851607250211E-032
   3.2266666666666660E-005    -6.3719593219585689E-032
   3.2466666666666665E-005    -5.6438698760027522E-032
   3.2666666666666657E-005    -3.1536277054559534E-032
   3.2866666666666661E-005     1.2487371997701165E-032
   3.3066666666666666E-005     7.3757615556469285E-032
   3.3266666666666658E-005     1.4177653822188521E-031
   3.3466666666666662E-005     2.0079723971085266E-031
   3.3666666666666667E-005     2.3563520121696368E-031
   3.3866666666666659E-005     2.2660681685547310E-031
   3.4066666666666664E-005     1.6208938623262555E-031
   3.4266666666666668E-005     4.1333049747087995E-032
   3.4466666666666660E-005    -1.2441441613057898E-031
   3.4666666666666665E-005    -3.0065981063241701E-031
   3.4866666666666656E-005    -4.4991049458513557E-031
   3.5066666666666661E-005    -5.3617363030271478E-031
   3.5266666666666666E-005    -5.1595776057591727E-031
   3.5466666666666657E-005    -3.7276616225451219E-031
   3.5666666666666662E-005    -9.7600567142277022E-032
   3.5866666666666667E-005     2.8554372910711393E-031
   3.6066666666666658E-005     6.9268322697063113E-031
   3.6266666666666663E-005     1.0278370259522215E-030
   3.6466666666666668E-005     1.1710286948032877E-030
   3.6666666666666659E-005     1.0322759747395707E-030
   3.6866666666666664E-005     5.4559183210082504E-031
   3.7066666666666669E-005    -1.6904730186435179E-031
   3.7266666666666660E-005    -1.0996437440642921E-030
   3.7466666666666665E-005    -2.1262212043097206E-030
   3.7666666666666656E-005    -2.9128460371568242E-030
   3.7866666666666661E-005    -3.2675564416134969E-030
   3.8066666666666666E-005    -3.0463801265401786E-030
   3.8266666666666657E-005    -1.9373790712851488E-030
   3.8466666666666662E-005     8.3442137354701849E-032
   3.8666666666666667E-005     2.6801498774454474E-030
   3.8866666666666658E-005     5.3728386120717941E-030
   3.9066666666666663E-005     7.6816031804766403E-030
   3.9266666666666668E-005     9.0305561108136104E-030
   3.9466666666666659E-005     8.6518505752724725E-030
   3.9666666666666664E-005     6.2575423677322984E-030
   3.9866666666666655E-005     1.3677263274359866E-030
   4.0066666666666660E-005    -5.6336738495927028E-030
   4.0266666666666665E-005    -1.3594883689858759E-029
   4.0466666666666656E-005    -2.0980208127148497E-029
   4.0666666666666661E-005    -2.6829835147235848E-029
   4.0866666666666666E-005    -2.8840217119684465E-029
   4.1066666666666657E-005    -2.3939963723987880E-029
   4.1266666666666662E-005    -1.3664770872715711E-029
   4.1466666666666667E-005     4.6728311619198335E-030
   4.1666666666666658E-005     2.9537147971981905E-029
   4.1866666666666663E-005     5.5553244615793227E-029
   4.2066666666666668E-005     7.6962242989466313E-029
   4.2266666666666660E-005     8.7621368470519309E-029
   4.2466666666666664E-005     8.4459214187485287E-029
   4.2666666666666656E-005     6.4404391324490552E-029
   4.2866666666666661E-005     2.3617659347794676E-029
   4.3066666666666665E-005    -3.3293887986362414E-029
   4.3266666666666657E-005    -9.8651771115132629E-029
   4.3466666666666662E-005    -1.6093825339096700E-028
   4.3666666666666666E-005    -2.1093918642183765E-028
   4.3866666666666658E-005    -2.3944032551921951E-028
   4.4066666666666663E-005    -2.2187057219318516E-028
   4.4266666666666667E-005    -1.4901571184786490E-028
   4.4466666666666659E-005     1.2909577630335018E-029
   4.4666666666666664E-005     2.6390529323214905E-028
   4.4866666666666655E-005     5.6404334724929821E-028
   4.5066666666666660E-005     8.4268169159239365E-028
   4.5266666666666665E-005     1.0230354012345363E-027
   4.5466666666666656E-005     9.9453433435952740E-028
   4.5666666666666661E-005     7.3260728414388001E-028
   4.5866666666666666E-005     2.2496864717585077E-028
   4.6066666666666657E-005    -5.6523829048329327E-028
   4.6266666666666662E-005    -1.5151576873091126E-027
   4.6466666666666667E-005    -2.3913636562574660E-027
   4.6666666666666658E-005    -2.9481444179829771E-027
   4.6866666666666663E-005    -2.9397887709192531E-027
   4.7066666666666668E-005    -2.3417253156498127E-027
   4.7266666666666659E-005    -8.5910043696128927E-028
   4.7466666666666664E-005     1.2623744709869297E-027
   4.7666666666666655E-005     4.0718415329523262E-027
   4.7866666666666660E-005     7.0778780569126226E-027
   4.8066666666666665E-005     9.3713509311427630E-027
   4.8266666666666656E-005     1.0387123361667523E-026
   4.8466666666666661E-005     9.2897770127902750E-027
   4.8666666666666666E-005     5.5387464899522749E-027
   4.8866666666666657E-005    -3.7454599630668545E-028
   4.9066666666666662E-005    -7.6638229831929952E-027
   4.9266666666666667E-005    -1.5149668469109233E-026
   4.9466666666666658E-005    -1.9883545724142749E-026
   4.9666666666666663E-005    -1.9703192399686595E-026
   4.9866666666666655E-005    -1.3724047361211180E-026
   5.0066666666666659E-005    -2.8552416019186201E-027
   5.0266666666666664E-005     1.0962102813216533E-026
   5.0466666666666656E-005     2.3600034308242175E-026
   5.0666666666666660E-005     3.2306578104113775E-026
   5.0866666666666665E-005     3.3936629742260733E-026
   5.1066666666666657E-005     2.6917635067467806E-026
   5.1266666666666661E-005     1.5967258086124680E-026
   5.1466666666666666E-005     1.8717716387931001E-027
   5.1666666666666658E-005    -1.2223715578910457E-026
   5.1866666666666662E-005    -2.4353510487780949E-026
   5.2066666666666667E-005    -2.9406817861158666E-026
   5.2266666666666659E-005    -2.2665967529678099E-026
   5.2466666666666664E-005    -1.1207457043667734E-026
   5.2666666666666655E-005     9.6863783736340942E-027
   5.2866666666666660E-005     4.0015539492599362E-026
   5.3066666666666665E-005     7.3489807381251163E-026
   5.3266666666666656E-005     9.7528747257123589E-026
   5.3466666666666661E-005     9.4834269575824783E-026
   5.3666666666666666E-005     6.9337767429112630E-026
   5.3866666666666657E-005     2.9688280966951194E-026
   5.4066666666666662E-005     8.9094420562567504E-027
   5.4266666666666667E-005     1.3291465006774341E-026
   5.4466666666666658E-005    -7.4873731335481254E-027
   5.4666666666666663E-005    -4.0846644515592542E-026
   5.4866666666666668E-005    -7.4205914356893002E-026
   5.5066666666666659E-005    -1.9502169995067278E-026
   5.5266666666666664E-005     7.9233078386833629E-026
   5.5466666666666655E-005     2.2199985544071301E-025
   5.5666666666666660E-005     3.9307260112549095E-025
   5.5866666666666665E-005     5.7672580470389413E-025
   5.6066666666666656E-005     7.3521811714695012E-025
   5.6266666666666661E-005     7.6790614647659319E-025
   5.6466666666666666E-005     7.5027239353554188E-025
   5.6666666666666657E-005     5.8167349099763374E-025
   5.6866666666666662E-005     3.1243112252595000E-025
   5.7066666666666667E-005    -1.0777639554259057E-025
   5.7266666666666658E-005    -6.6636865461816930E-025
   5.7466666666666663E-005    -1.4010868804702422E-024
   5.7666666666666654E-005    -2.1358052049299282E-024
   5.7866666666666659E-005    -2.7698801620634518E-024
   5.8066666666666664E-005    -3.1020247213956486E-024
   5.8266666666666655E-005    -3.8367429472477215E-024
   5.8466666666666660E-005    -4.1688873093646919E-024
   5.8666666666666665E-005    -4.0984578077465600E-024
   5.8866666666666656E-005    -3.2228809730886759E-024
   5.9066666666666661E-005    -1.9447302746956893E-024
   5.9266666666666666E-005     6.4734911958567755E-027
   5.9466666666666657E-005     2.5615380526900565E-024
   5.9666666666666662E-005     6.9281850995998302E-024
   5.9866666666666667E-005     1.2099979282334130E-023
   6.0066666666666659E-005     1.6064052662724027E-023
   6.0266666666666663E-005     2.1638421498054335E-023
   6.0466666666666655E-005     2.8823084210603241E-023
   6.0666666666666660E-005     3.3994878393337541E-023
   6.0866666666666664E-005     3.6348659474230649E-023
   6.1066666666666656E-005     3.6488281543567527E-023
   6.1266666666666661E-005     3.0790585349758587E-023
   6.1466666666666665E-005     1.8651707336188010E-023
   6.1666666666666657E-005    -2.3437941018330108E-024
   6.1866666666666662E-005    -2.6559886449734850E-023
   6.2066666666666666E-005    -6.3658342437159967E-023
   6.2266666666666658E-005    -1.1524944805271791E-022
   6.2466666666666663E-005    -1.5878907954901742E-022
   6.2666666666666668E-005    -1.8461546419641605E-022
   6.2866666666666659E-005    -1.7340506915740336E-022
   6.3066666666666664E-005    -1.1106780367922443E-022
   6.3266666666666655E-005     4.4092055011007684E-024
   6.3466666666666660E-005     1.3920974120804916E-022
   6.3666666666666665E-005     2.8045146189020281E-022
   6.3866666666666656E-005     3.8948726085177379E-022
   6.4066666666666661E-005     4.4055248654436244E-022
   6.4266666666666666E-005     3.8855880312076487E-022
   6.4466666666666657E-005     2.4638857422050436E-022
   6.4666666666666662E-005     4.6247721564163587E-023
   6.4866666666666667E-005    -1.8287843034844283E-022
   6.5066666666666658E-005    -3.8704502321985644E-022
   6.5266666666666663E-005    -5.4612338121826203E-022
   6.5466666666666654E-005    -6.7943698669407209E-022
   6.5666666666666659E-005    -7.3545641033274250E-022
   6.5866666666666664E-005    -7.6571115717946428E-022
   6.6066666666666655E-005    -6.4137754035190674E-022
   6.6266666666666660E-005    -4.3974979217430747E-022
   6.6466666666666665E-005    -8.3533674011541634E-023
   6.6666666666666656E-005     2.9844715880849627E-022
   6.6866666666666661E-005     6.2889854338132831E-022
   6.7066666666666666E-005     9.3358520067511380E-022
   6.7266666666666657E-005     1.2382718074818013E-021
   6.7466666666666662E-005     1.4398996061464985E-021
   6.7666666666666667E-005     1.3323506774626371E-021
   6.7866666666666658E-005     1.1217429406367853E-021
   6.8066666666666663E-005     1.1172530220433059E-021
   6.8266666666666655E-005     1.3188808207080032E-021
   6.8466666666666659E-005     1.4174497102565141E-021
   6.8666666666666664E-005     1.1037830643144761E-021
   6.8866666666666656E-005     6.3552810518525673E-022
   6.9066666666666660E-005    -3.2225652078455340E-022
   6.9266666666666665E-005    -1.7953355408740008E-021
   6.9466666666666657E-005    -4.7112390866416635E-021
   6.9666666666666661E-005    -6.8026711575314447E-021
   6.9866666666666666E-005    -1.0543046178176989E-020
   7.0066666666666658E-005    -1.4283420391028966E-020
   7.0266666666666662E-005    -1.8023795411674510E-020
   7.0466666666666654E-005    -1.9702991442202763E-020
   7.0666666666666659E-005    -1.7672067552341879E-020
   7.0866666666666664E-005    -1.0488200226155602E-020
   7.1066666666666655E-005     2.3123765361466698E-021
   7.1266666666666660E-005     2.1708721866297725E-020
   7.1466666666666665E-005     4.3578478995753333E-020
   7.1666666666666656E-005     6.7921648328410276E-020
   7.1866666666666661E-005     8.7317993254664548E-020
   7.2066666666666666E-005     9.6820682905764943E-020
   7.2266666666666657E-005     8.8185007783590832E-020
   7.2466666666666662E-005     6.1410967888142215E-020
   7.2666666666666667E-005     6.6049095598523485E-021
   7.2866666666666658E-005    -6.0568213015618462E-020
   7.3066666666666663E-005    -1.3155452027709796E-019
   7.3266666666666654E-005    -1.8275353637531530E-019
   7.3466666666666659E-005    -2.0592051303805866E-019
   7.3666666666666664E-005    -1.8621500289551416E-019
   7.3866666666666655E-005    -1.3353065476048714E-019
   7.4066666666666660E-005    -3.4675921803757230E-020
   7.4266666666666665E-005     7.0774581336408597E-020
   7.4466666666666656E-005     1.7622509093892296E-019
   7.4666666666666661E-005     2.6188830291582664E-019
   7.4866666666666666E-005     3.0467900223804832E-019
   7.5066666666666657E-005     2.6996944391016344E-019
   7.5266666666666662E-005     1.7754688678369148E-019
   7.5466666666666653E-005     1.9166634285208882E-020