  -3.3333333333333335E-005     0.0000000000000000     
  -3.3133333333333337E-005     0.0000000000000000     
  -3.2933333333333332E-005     0.0000000000000000     
  -3.2733333333333334E-005     0.0000000000000000     
  -3.2533333333333336E-005     0.0000000000000000     
  -3.2333333333333338E-005     0.0000000000000000     
  -3.2133333333333333E-005     0.0000000000000000     
  -3.1933333333333335E-005     0.0000000000000000     
  -3.1733333333333337E-005     0.0000000000000000     
  -3.1533333333333332E-005     0.0000000000000000     
  -3.1333333333333334E-005     0.0000000000000000     
  -3.1133333333333336E-005     0.0000000000000000     
  -3.0933333333333338E-005     0.0000000000000000     
  -3.0733333333333333E-005     0.0000000000000000     
  -3.0533333333333335E-005     0.0000000000000000     
  -3.0333333333333337E-005     0.0000000000000000     
  -3.0133333333333335E-005     0.0000000000000000     
  -2.9933333333333334E-005     0.0000000000000000     
  -2.9733333333333336E-005     0.0000000000000000     
  -2.9533333333333334E-005     0.0000000000000000     
  -2.9333333333333336E-005     0.0000000000000000     
  -2.9133333333333334E-005     0.0000000000000000     
  -2.8933333333333336E-005     0.0000000000000000     
  -2.8733333333333335E-005     0.0000000000000000     
  -2.8533333333333333E-005     0.0000000000000000     
  -2.8333333333333335E-005     0.0000000000000000     
  -2.8133333333333337E-005     0.0000000000000000     
  -2.7933333333333336E-005     0.0000000000000000     
  -2.7733333333333334E-005     0.0000000000000000     
  -2.7533333333333336E-005     0.0000000000000000     
  -2.7333333333333335E-005     0.0000000000000000     
  -2.7133333333333333E-005     0.0000000000000000     
  -2.6933333333333335E-005     0.0000000000000000     
  -2.6733333333333337E-005     0.0000000000000000     
  -2.6533333333333336E-005     0.0000000000000000     
  -2.6333333333333334E-005     0.0000000000000000     
  -2.6133333333333336E-005     0.0000000000000000     
  -2.5933333333333335E-005     0.0000000000000000     
  -2.5733333333333333E-005     0.0000000000000000     
  -2.5533333333333335E-005     0.0000000000000000     
  -2.5333333333333337E-005     0.0000000000000000     
  -2.5133333333333336E-005     0.0000000000000000     
  -2.4933333333333334E-005     0.0000000000000000     
  -2.4733333333333336E-005     0.0000000000000000     
  -2.4533333333333334E-005     0.0000000000000000     
  -2.4333333333333333E-005     0.0000000000000000     
  -2.4133333333333335E-005     0.0000000000000000     
  -2.3933333333333337E-005     0.0000000000000000     
  -2.3733333333333335E-005     0.0000000000000000     
  -2.3533333333333334E-005     0.0000000000000000     
  -2.3333333333333336E-005     0.0000000000000000     
  -2.3133333333333338E-005     0.0000000000000000     
  -2.2933333333333336E-005     0.0000000000000000     
  -2.2733333333333335E-005     0.0000000000000000     
  -2.2533333333333337E-005     0.0000000000000000     
  -2.2333333333333335E-005     0.0000000000000000     
  -2.2133333333333334E-005     0.0000000000000000     
  -2.1933333333333336E-005     0.0000000000000000     
  -2.1733333333333338E-005     0.0000000000000000     
  -2.1533333333333336E-005     0.0000000000000000     
  -2.1333333333333335E-005     0.0000000000000000     
  -2.1133333333333337E-005     0.0000000000000000     
  -2.0933333333333335E-005     0.0000000000000000     
  -2.0733333333333334E-005     0.0000000000000000     
  -2.0533333333333336E-005     0.0000000000000000     
  -2.0333333333333337E-005     0.0000000000000000     
  -2.0133333333333336E-005     0.0000000000000000     
  -1.9933333333333334E-005     0.0000000000000000     
  -1.9733333333333336E-005     0.0000000000000000     
  -1.9533333333333335E-005     0.0000000000000000     
  -1.9333333333333333E-005     0.0000000000000000     
  -1.9133333333333335E-005     0.0000000000000000     
  -1.8933333333333337E-005     0.0000000000000000     
  -1.8733333333333336E-005     0.0000000000000000     
  -1.8533333333333334E-005     0.0000000000000000     
  -1.8333333333333336E-005     0.0000000000000000     
  -1.8133333333333335E-005     0.0000000000000000     
  -1.7933333333333337E-005     0.0000000000000000     
  -1.7733333333333335E-005     0.0000000000000000     
  -1.7533333333333337E-005     0.0000000000000000     
  -1.7333333333333336E-005     0.0000000000000000     
  -1.7133333333333334E-005     0.0000000000000000     
  -1.6933333333333336E-005     0.0000000000000000     
  -1.6733333333333335E-005     0.0000000000000000     
  -1.6533333333333337E-005     0.0000000000000000     
  -1.6333333333333335E-005     0.0000000000000000     
  -1.6133333333333337E-005     0.0000000000000000     
  -1.5933333333333336E-005     0.0000000000000000     
  -1.5733333333333334E-005     0.0000000000000000     
  -1.5533333333333336E-005     0.0000000000000000     
  -1.5333333333333334E-005     0.0000000000000000     
  -1.5133333333333336E-005     0.0000000000000000     
  -1.4933333333333335E-005     0.0000000000000000     
  -1.4733333333333337E-005     0.0000000000000000     
  -1.4533333333333335E-005     0.0000000000000000     
  -1.4333333333333337E-005     0.0000000000000000     
  -1.4133333333333336E-005     0.0000000000000000     
  -1.3933333333333334E-005     0.0000000000000000     
  -1.3733333333333336E-005     0.0000000000000000     
  -1.3533333333333335E-005     0.0000000000000000     
  -1.3333333333333337E-005     0.0000000000000000     
  -1.3133333333333335E-005     0.0000000000000000     
  -1.2933333333333337E-005     0.0000000000000000     
  -1.2733333333333336E-005     0.0000000000000000     
  -1.2533333333333338E-005     0.0000000000000000     
  -1.2333333333333336E-005     0.0000000000000000     
  -1.2133333333333335E-005     0.0000000000000000     
  -1.1933333333333337E-005     0.0000000000000000     
  -1.1733333333333335E-005     0.0000000000000000     
  -1.1533333333333337E-005     0.0000000000000000     
  -1.1333333333333336E-005     0.0000000000000000     
  -1.1133333333333337E-005     0.0000000000000000     
  -1.0933333333333336E-005     0.0000000000000000     
  -1.0733333333333334E-005     0.0000000000000000     
  -1.0533333333333336E-005     0.0000000000000000     
  -1.0333333333333335E-005     0.0000000000000000     
  -1.0133333333333337E-005     0.0000000000000000     
  -9.9333333333333354E-006     0.0000000000000000     
  -9.7333333333333373E-006     0.0000000000000000     
  -9.5333333333333358E-006     0.0000000000000000     
  -9.3333333333333343E-006     0.0000000000000000     
  -9.1333333333333362E-006     0.0000000000000000     
  -8.9333333333333348E-006     0.0000000000000000     
  -8.7333333333333367E-006     0.0000000000000000     
  -8.5333333333333352E-006     0.0000000000000000     
  -8.3333333333333371E-006     0.0000000000000000     
  -8.1333333333333356E-006     0.0000000000000000     
  -7.9333333333333376E-006     0.0000000000000000     
  -7.7333333333333361E-006     0.0000000000000000     
  -7.5333333333333346E-006     0.0000000000000000     
  -7.3333333333333365E-006     0.0000000000000000     
  -7.1333333333333351E-006     0.0000000000000000     
  -6.9333333333333370E-006     0.0000000000000000     
  -6.7333333333333355E-006     0.0000000000000000     
  -6.5333333333333374E-006     0.0000000000000000     
  -6.3333333333333359E-006     0.0000000000000000     
  -6.1333333333333379E-006     0.0000000000000000     
  -5.9333333333333364E-006     0.0000000000000000     
  -5.7333333333333349E-006     0.0000000000000000     
  -5.5333333333333368E-006     0.0000000000000000     
  -5.3333333333333354E-006     0.0000000000000000     
  -5.1333333333333373E-006     0.0000000000000000     
  -4.9333333333333358E-006     0.0000000000000000     
  -4.7333333333333377E-006     0.0000000000000000     
  -4.5333333333333362E-006     0.0000000000000000     
  -4.3333333333333348E-006     0.0000000000000000     
  -4.1333333333333367E-006     0.0000000000000000     
  -3.9333333333333352E-006     0.0000000000000000     
  -3.7333333333333371E-006     0.0000000000000000     
  -3.5333333333333356E-006     0.0000000000000000     
  -3.3333333333333376E-006     0.0000000000000000     
  -3.1333333333333361E-006     0.0000000000000000     
  -2.9333333333333346E-006     0.0000000000000000     
  -2.7333333333333365E-006     0.0000000000000000     
  -2.5333333333333384E-006     0.0000000000000000     
  -2.3333333333333336E-006     0.0000000000000000     
  -2.1333333333333355E-006     0.0000000000000000     
  -1.9333333333333374E-006     0.0000000000000000     
  -1.7333333333333393E-006     0.0000000000000000     
  -1.5333333333333345E-006     0.0000000000000000     
  -1.3333333333333364E-006     0.0000000000000000     
  -1.1333333333333383E-006     0.0000000000000000     
  -9.3333333333333343E-007     0.0000000000000000     
  -7.3333333333333535E-007     0.0000000000000000     
  -5.3333333333333726E-007     0.0000000000000000     
  -3.3333333333333918E-007     0.0000000000000000     
  -1.3333333333333432E-007    -2.1093266539406672E-038
   6.6666666666663770E-008    -5.6603198178470351E-038
   2.6666666666666185E-007    -1.0017417490367961E-037
   4.6666666666666672E-007    -1.3878731282055682E-037
   6.6666666666666480E-007    -1.3699580318066225E-037
   8.6666666666666289E-007    -8.0796448009222599E-038
   1.0666666666666610E-006     3.3592711513934537E-038
   1.2666666666666658E-006     2.2738033885675298E-037
   1.4666666666666639E-006     4.7593279531750018E-037
   1.6666666666666620E-006     7.5205630353128532E-037
   1.8666666666666669E-006     1.0206158492631748E-036
   2.0666666666666649E-006     1.2072877278457027E-036
   2.2666666666666630E-006     1.2490605920126535E-036
   2.4666666666666611E-006     1.0653600042731045E-036
   2.6666666666666660E-006     5.7691574364284951E-037
   2.8666666666666641E-006    -2.8430381781222941E-037
   3.0666666666666622E-006    -1.5591633234879971E-036
   3.2666666666666602E-006    -3.2382110712945212E-036
   3.4666666666666651E-006    -5.2406657696667694E-036
   3.6666666666666632E-006    -7.3843451657772578E-036
   3.8666666666666613E-006    -9.3607002878878862E-036
   4.0666666666666661E-006    -1.0719479634956367E-035
   4.2666666666666642E-006    -1.0874312846549113E-035
   4.4666666666666623E-006    -9.1385315685965484E-036
   4.6666666666666604E-006    -4.8012558794248209E-036
   4.8666666666666652E-006     2.7503471948570264E-036
   5.0666666666666633E-006     1.3862764730407737E-035
   5.2666666666666614E-006     2.8411523397960138E-035
   5.4666666666666663E-006     4.5579908247504396E-035
   5.6666666666666644E-006     6.3658029871285989E-035
   5.8666666666666624E-006     7.9904067785026717E-035
   6.0666666666666605E-006     9.0525589079104684E-035
   6.2666666666666654E-006     9.0839884585268389E-035
   6.4666666666666635E-006     7.5667621730917954E-035
   6.6666666666666616E-006     3.9996797957171869E-035
   6.8666666666666664E-006    -2.0076959940760214E-035
   7.0666666666666645E-006    -1.0617379513201242E-034
   7.2666666666666626E-006    -2.1630953428039886E-034
   7.4666666666666607E-006    -3.4359828444230085E-034
   7.6666666666666655E-006    -4.7519106584376538E-034
   7.8666666666666636E-006    -5.9172103508314427E-034
   8.0666666666666617E-006    -6.6754565533446282E-034
   8.2666666666666598E-006    -6.7206276788398593E-034
   8.4666666666666647E-006    -5.7232152120373789E-034
   8.6666666666666627E-006    -3.3704630392778301E-034
   8.8666666666666608E-006     5.7958586966195327E-035
   9.0666666666666657E-006     6.2324545176704599E-034
   9.2666666666666638E-006     1.3484321613603009E-033
   9.4666666666666619E-006     2.1948652357691206E-033
   9.6666666666666599E-006     3.0891686645762471E-033
   9.8666666666666648E-006     3.9188744543728657E-033
   1.0066666666666663E-005     4.5315887624534902E-033
   1.0266666666666661E-005     4.7393739193506379E-033
   1.0466666666666666E-005     4.3301633973362756E-033
   1.0666666666666664E-005     3.0879909661735170E-033
   1.0866666666666662E-005     8.2342258882048112E-034
   1.1066666666666660E-005    -2.5853055007237511E-033
   1.1266666666666665E-005    -7.1415138903292602E-033
   1.1466666666666663E-005    -1.2673172104160074E-032
   1.1666666666666661E-005    -1.8776543015772846E-032
   1.1866666666666666E-005    -2.4770828051629310E-032
   1.2066666666666664E-005    -2.9677917464193441E-032
   1.2266666666666662E-005    -3.2244015754566740E-032
   1.2466666666666660E-005    -3.1020299686737845E-032
   1.2666666666666665E-005    -2.4516521603772416E-032
   1.2866666666666663E-005    -1.1433489884311135E-032
   1.3066666666666661E-005     9.0329217696847532E-033
   1.3266666666666666E-005     3.6841479955124281E-032
   1.3466666666666664E-005     7.0754697687858669E-032
   1.3666666666666662E-005     1.0805242814283936E-031
   1.3866666666666660E-005     1.4438832210020322E-031
   1.4066666666666665E-005     1.7386934426063393E-031
   1.4266666666666663E-005     1.8942395570845476E-031
   1.4466666666666661E-005     1.8349175293736904E-031
   1.4666666666666666E-005     1.4901681935162247E-031
   1.4866666666666664E-005     8.0666142793045721E-032
   1.5066666666666662E-005    -2.3866451187248613E-032
   1.5266666666666661E-005    -1.6265610381410049E-031
   1.5466666666666665E-005    -3.2864421689526780E-031
   1.5666666666666663E-005    -5.0921498392027853E-031
   1.5866666666666662E-005    -6.8636344020219228E-031
   1.6066666666666660E-005    -8.3747192244672442E-031
   1.6266666666666665E-005    -9.3660869613631706E-031
   1.6466666666666663E-005    -9.5619045719050698E-031
   1.6666666666666661E-005    -8.6884426799785416E-031
   1.6866666666666666E-005    -6.4938878261459159E-031
   1.7066666666666664E-005    -2.7703044637015368E-031
   1.7266666666666662E-005     2.6189790792393909E-031
   1.7466666666666660E-005     9.7013567581273001E-031
   1.7666666666666665E-005     1.8340623337235802E-030
   1.7866666666666663E-005     2.8163059775079720E-030
   1.8066666666666661E-005     3.8466903467381995E-030
   1.8266666666666666E-005     4.8128425072948629E-030
   1.8466666666666664E-005     5.5531003886517477E-030
   1.8666666666666662E-005     5.8556763961353271E-030
   1.8866666666666660E-005     5.4689003865791837E-030
   1.9066666666666665E-005     4.1272520721777714E-030
   1.9266666666666663E-005     1.5962588861567508E-030
   1.9466666666666661E-005    -2.2641170360114621E-030
   1.9666666666666666E-005    -7.4232073288325580E-030
   1.9866666666666664E-005    -1.3602399330540176E-029
   2.0066666666666662E-005    -2.0214997039791453E-029
   2.0266666666666660E-005    -2.6345424645770463E-029
   2.0466666666666665E-005    -3.0790076743630712E-029
   2.0666666666666663E-005    -3.2176370145397258E-029
   2.0866666666666661E-005    -2.9163962934070421E-029
   2.1066666666666659E-005    -2.0713432223297177E-029
   2.1266666666666664E-005    -6.3854583464351068E-030
   2.1466666666666662E-005     1.3387301543774734E-029
   2.1666666666666660E-005     3.7126900845071734E-029
   2.1866666666666665E-005     6.2305873982961915E-029
   2.2066666666666663E-005     8.5562621582342268E-029
   2.2266666666666661E-005     1.0314623558544513E-028
   2.2466666666666659E-005     1.1154316977235195E-028
   2.2666666666666664E-005     1.0817428496538119E-028
   2.2866666666666662E-005     9.1997297971285852E-029
   2.3066666666666660E-005     6.3825727617106178E-029
   2.3266666666666665E-005     2.6200615778811310E-029
   2.3466666666666663E-005    -1.7264729657193715E-029
   2.3666666666666661E-005    -6.3004565255599147E-029
   2.3866666666666660E-005    -1.0884539932862723E-028
   2.4066666666666664E-005    -1.5516328023034895E-028
   2.4266666666666662E-005    -2.0533090249790632E-028
   2.4466666666666661E-005    -2.6494397132528139E-028
   2.4666666666666665E-005    -3.3950057133240006E-028
   2.4866666666666663E-005    -4.3058203544835010E-028
   2.5066666666666662E-005    -5.3111423039440274E-028
   2.5266666666666660E-005    -6.2087980287585019E-028
   2.5466666666666665E-005    -6.6395000014941388E-028
   2.5666666666666663E-005    -6.0991827630087302E-028
   2.5866666666666661E-005    -4.0055433205467400E-028
   2.6066666666666666E-005     1.7368517720970190E-029
   2.6266666666666664E-005     6.7379689476907693E-028
   2.6466666666666662E-005     1.5543157912348911E-027
   2.6666666666666660E-005     2.5808986591304915E-027
   2.6866666666666665E-005     3.6006612313140334E-027
   2.7066666666666663E-005     4.3892355581593204E-027
   2.7266666666666661E-005     4.6741668785957011E-027
   2.7466666666666666E-005     4.1805510338492526E-027
   2.7666666666666664E-005     2.6960351808448326E-027
   2.7866666666666662E-005     1.4601115280106144E-028
   2.8066666666666667E-005    -3.3364563837531592E-027
   2.8266666666666658E-005    -7.3659178282792443E-027
   2.8466666666666663E-005    -1.1305844330434722E-026
   2.8666666666666668E-005    -1.4332294556247557E-026
   2.8866666666666659E-005    -1.5565815707772649E-026
   2.9066666666666664E-005    -1.4261526645627037E-026
   2.9266666666666669E-005    -1.0028353427907292E-026
   2.9466666666666660E-005    -3.0303502339502186E-027
   2.9666666666666665E-005     5.8887403461419230E-027
   2.9866666666666656E-005     1.5216610712488222E-026
   3.0066666666666661E-005     2.2962183258844633E-026
   3.0266666666666666E-005     2.7033677739220981E-026
   3.0466666666666657E-005     2.5766597643600930E-026
   3.0666666666666662E-005     1.8508538055183193E-026
   3.0866666666666667E-005     6.1188778041025202E-027
   3.1066666666666658E-005    -8.7860777692269926E-027
   3.1266666666666663E-005    -2.2002688042038823E-026
   3.1466666666666668E-005    -2.8427588795770687E-026
   3.1666666666666659E-005    -2.3260617659307102E-026
   3.1866666666666664E-005    -3.5756037271795888E-027
   3.2066666666666656E-005     3.0045305237809833E-026
   3.2266666666666660E-005     7.2250180261430385E-026
   3.2466666666666665E-005     1.1252599146745819E-025
   3.2666666666666657E-005     1.3612308911772117E-025
   3.2866666666666661E-005     1.2654848709582744E-025
   3.3066666666666666E-005     6.9549293085276658E-026
   3.3266666666666658E-005    -4.1925519655559161E-026
   3.3466666666666662E-005    -2.0275290660038801E-025
   3.3666666666666667E-005    -3.9198532893096680E-025
   3.3866666666666659E-005    -5.7199880224839010E-025
   3.4066666666666664E-005    -6.9172328506145811E-025
   3.4266666666666668E-005    -6.9463768237199056E-025
   3.4466666666666660E-005    -5.3121750376543864E-025
   3.4666666666666665E-005    -1.7425143605046272E-025
   3.4866666666666656E-005     3.6586740160616680E-025
   3.5066666666666661E-005     1.0297999304894972E-024
   3.5266666666666666E-005     1.7061720316391610E-024
   3.5466666666666657E-005     2.2404529288186057E-024
   3.5666666666666662E-005     2.4577689226345689E-024
   3.5866666666666667E-005     2.1987752378282903E-024
   3.6066666666666658E-005     1.3640939385731949E-024
   3.6266666666666663E-005    -4.0865410776970651E-026
   3.6466666666666668E-005    -1.8717981118557437E-024
   3.6666666666666659E-005    -3.8342769680580006E-024
   3.6866666666666664E-005    -5.5059706505431194E-024
   3.7066666666666669E-005    -6.3980634715431632E-024
   3.7266666666666660E-005    -6.0537678904726209E-024
   3.7466666666666665E-005    -4.1718569762423964E-024
   3.7666666666666656E-005    -7.3285311215309753E-025
   3.7866666666666661E-005     3.9026372875217378E-024
   3.8066666666666666E-005     8.9572355331632356E-024
   3.8266666666666657E-005     1.3291541057895985E-023
   3.8466666666666662E-005     1.5567412658067656E-023
   3.8666666666666667E-005     1.4515769563543041E-023
   3.8866666666666658E-005     9.2778088835224243E-024
   3.9066666666666663E-005    -2.3983146455755506E-025
   3.9266666666666668E-005    -1.3078653531986706E-023
   3.9466666666666659E-005    -2.7103973282396645E-023
   3.9666666666666664E-005    -3.9127573474165466E-023
   3.9866666666666655E-005    -4.5330440414459837E-023
   4.0066666666666660E-005    -4.1983903127895052E-023
   4.0266666666666665E-005    -2.6395101295243233E-023
   4.0466666666666656E-005     2.0751751306916780E-024
   4.0666666666666661E-005     4.1141273463374176E-023
   4.0866666666666666E-005     8.5123986042030985E-023
   4.1066666666666657E-005     1.2512851094098168E-022
   4.1266666666666662E-005     1.5004096551980194E-022
   4.1466666666666667E-005     1.4837978853647477E-022
   4.1666666666666658E-005     1.1085202182265390E-022
   4.1866666666666663E-005     3.3253847702521889E-023
   4.2066666666666668E-005    -8.0837965904445909E-023
   4.2266666666666660E-005    -2.1826481204693592E-022
   4.2466666666666664E-005    -3.5606783124524601E-022
   4.2666666666666656E-005    -4.6340420924680471E-022
   4.2866666666666661E-005    -5.0584351230895299E-022
   4.3066666666666665E-005    -4.5183458588421609E-022
   4.3266666666666657E-005    -2.8059035189661965E-022
   4.3466666666666662E-005     9.9028991093759331E-024
   4.3666666666666666E-005     3.9645993297326265E-022
   4.3866666666666658E-005     8.2772945779466976E-022
   4.4066666666666663E-005     1.2263672527115176E-021
   4.4266666666666667E-005     1.4974235957907044E-021
   4.4466666666666659E-005     1.5430050643669800E-021
   4.4666666666666664E-005     1.2819606157307218E-021
   4.4866666666666655E-005     6.7192526382794036E-022
   4.5066666666666660E-005    -2.7019162530931972E-022
   4.5266666666666665E-005    -1.4539640999406009E-021
   4.5466666666666656E-005    -2.7121582172414116E-021
   4.5666666666666661E-005    -3.8121458634815905E-021
   4.5866666666666666E-005    -4.4838120780100307E-021
   4.6066666666666657E-005    -4.4628938596971724E-021
   4.6266666666666662E-005    -3.5453033755443791E-021
   4.6466666666666667E-005    -1.6446452860312168E-021
   4.6666666666666658E-005     1.1575402115818154E-021
   4.6866666666666663E-005     4.5805360680258322E-021
   4.7066666666666668E-005     8.1432344702408333E-021
   4.7266666666666659E-005     1.1200965765679920E-020
   4.7466666666666664E-005     1.3023087135388686E-020
   4.7666666666666655E-005     1.2907069399923155E-020
   4.7866666666666660E-005     1.0316896291174698E-020
   4.8066666666666665E-005     5.0262822128217780E-021
   4.8266666666666656E-005    -2.7582541493456362E-021
   4.8466666666666661E-005    -1.2321427141822745E-020
   4.8666666666666666E-005    -2.2434946054440936E-020
   4.8866666666666657E-005    -3.1442369391710876E-020
   4.9066666666666662E-005    -3.7438682431464468E-020
   4.9266666666666667E-005    -3.8535174956888862E-020
   4.9466666666666658E-005    -3.3183943241478723E-020
   4.9666666666666663E-005    -2.0521359026940407E-020
   4.9866666666666655E-005    -6.7886002013888069E-022
   5.0066666666666659E-005     2.4995133058190779E-020
   5.0266666666666664E-005     5.3854866862926374E-020
   5.0466666666666656E-005     8.2059179585661603E-020
   5.0666666666666660E-005     1.0487665951490424E-019
   5.0866666666666665E-005     1.1718958543722844E-019
   5.1066666666666657E-005     1.1416432744318059E-019
   5.1266666666666661E-005     9.2028903165427681E-020
   5.1466666666666666E-005     4.8875546536912587E-020
   5.1666666666666658E-005    -1.4608998357012411E-020
   5.1866666666666662E-005    -9.4590002975908172E-020
   5.2066666666666667E-005    -1.8381000111391037E-019
   5.2266666666666659E-005    -2.7168374988028545E-019
   5.2466666666666664E-005    -3.4483482111655890E-019
   5.2666666666666655E-005    -3.8811950236083959E-019
   5.2866666666666660E-005    -3.8614941663567970E-019
   5.3066666666666665E-005    -3.2528034898398775E-019
   5.3266666666666656E-005    -1.9597897822260474E-019
   5.3466666666666661E-005     4.5912433717557056E-021
   5.3666666666666666E-005     2.7000894178441285E-019
   5.3866666666666657E-005     5.8239894754207464E-019
   5.4066666666666662E-005     9.1103666753605027E-019
   5.4266666666666667E-005     1.2122636899815500E-018
   5.4466666666666658E-005     1.4312561382397841E-018
   5.4666666666666663E-005     1.5061329408783904E-018
   5.4866666666666668E-005     1.3747295103100541E-018
   5.5066666666666659E-005     9.8405769047039389E-019
   5.5266666666666664E-005     3.0201816900261837E-019
   5.5466666666666655E-005    -6.6964442678382155E-019
   5.5666666666666660E-005    -1.8828086579585003E-018
   5.5866666666666665E-005    -3.2331590876650853E-018
   5.6066666666666656E-005    -4.5558502520491222E-018
   5.6266666666666661E-005    -5.6295732869444986E-018
   5.6466666666666666E-005    -6.1916305190553989E-018
   5.6666666666666657E-005    -5.9657043327100156E-018
   5.6866666666666662E-005    -4.7024101129812677E-018
   5.7066666666666667E-005    -2.2305051362535806E-018
   5.7266666666666658E-005     1.4860549926650439E-018
   5.7466666666666663E-005     6.2928294495563614E-018
   5.7666666666666654E-005     1.1801482579425715E-017
   5.7866666666666659E-005     1.7369947485027552E-017
   5.8066666666666664E-005     2.2117957583637030E-017
   5.8266666666666655E-005     2.4987827631665258E-017
   5.8466666666666660E-005     2.4856044525195760E-017
   5.8666666666666665E-005     2.0694541876833330E-017
   5.8866666666666656E-005     1.1771731374334020E-017
   5.9066666666666661E-005    -2.1266313104467747E-018
   5.9266666666666666E-005    -2.0486557237974222E-017
   5.9466666666666657E-005    -4.1902895262960099E-017
   5.9666666666666662E-005    -6.4006732873540849E-017
   5.9866666666666667E-005    -8.3524330741970455E-017
   6.0066666666666659E-005    -9.6500478447212310E-017
   6.0266666666666663E-005    -9.8703128069543015E-017
   6.0466666666666655E-005    -8.6202053351147514E-017
   6.0666666666666660E-005    -5.6084658710997993E-017
   6.0866666666666664E-005    -7.2388659899659085E-018
   6.1066666666666656E-005     5.8898713920013592E-017
   6.1266666666666661E-005     1.3775636957864568E-016
   6.1466666666666665E-005     2.2134261313510451E-016
   6.1666666666666657E-005     2.9839811355422447E-016
   6.1866666666666662E-005     3.5509235805455974E-016
   6.2066666666666666E-005     3.7632207420718630E-016
   6.2266666666666658E-005     3.4759468710326069E-016
   6.2466666666666663E-005     2.5738747816569062E-016
   6.2666666666666668E-005     9.9772004239639137E-017
   6.2866666666666659E-005    -1.2300641576784511E-016
   6.3066666666666664E-005    -3.9838490020299667E-016
   6.3266666666666655E-005    -7.0221254788868041E-016
   6.3466666666666660E-005    -9.9878864063380167E-016
   6.3666666666666665E-005    -1.2425789106554558E-015
   6.3866666666666656E-005    -1.3818441503156268E-015
   6.4066666666666661E-005    -1.3642109360570420E-015
   6.4266666666666666E-005    -1.1439513471892307E-015
   6.4466666666666657E-005    -6.9043614294388546E-016
   6.4666666666666662E-005     3.0812808689845302E-018
   6.4866666666666667E-005     9.1147574327699954E-016
   6.5066666666666658E-005     1.9718744899996452E-015
   6.5266666666666663E-005     3.0812985507973041E-015
   6.5466666666666654E-005     4.0991287038436193E-015
   6.5666666666666659E-005     4.8554283288209862E-015
   6.5866666666666664E-005     5.1656490635551902E-015
   6.6066666666666655E-005     4.8515531530872978E-015
   6.6266666666666660E-005     3.7673179463168505E-015
   6.6466666666666665E-005     1.8288161309225510E-015
   6.6666666666666656E-005    -9.5690402606237899E-016
   6.6866666666666661E-005    -4.4657711502273795E-015
   6.7066666666666666E-005    -8.4389223378917612E-015
   6.7266666666666657E-005    -1.2477646581167835E-014
   6.7466666666666662E-005    -1.6055346884879390E-014
   6.7666666666666667E-005    -1.8549860608609199E-014
   6.7866666666666658E-005    -1.9297785618837063E-014
   6.8066666666666663E-005    -1.7670093226075309E-014
   6.8266666666666655E-005    -1.3165403453020436E-014
   6.8466666666666659E-005    -5.5139172477306365E-015
   6.8666666666666664E-005     5.2183569592475099E-015
   6.8866666666666656E-005     1.8538479873929890E-014
   6.9066666666666660E-005     3.3464232090680418E-014
   6.9266666666666665E-005     4.8507022237884861E-014
   6.9466666666666657E-005     6.1715593030996219E-014
   6.9666666666666661E-005     7.0792770788270093E-014
   6.9866666666666666E-005     7.3291755151895510E-014
   7.0066666666666658E-005     6.6889995333028335E-014
   7.0266666666666662E-005     4.9728348880135470E-014
   7.0466666666666654E-005     2.0790957321113572E-014
   7.0666666666666659E-005    -1.9711090263252115E-014
   7.0866666666666664E-005    -7.0000612023470715E-014
   7.1066666666666655E-005    -1.2649660507436933E-013
   7.1266666666666660E-005    -1.8373845468103861E-013
   7.1466666666666665E-005    -2.3452981635745107E-013
   7.1666666666666656E-005    -2.7034825116414862E-013
   7.1866666666666661E-005    -2.8204654865977841E-013
   7.2066666666666666E-005    -2.6084158704503535E-013
   7.2266666666666657E-005    -1.9954860246834683E-013
   7.2466666666666662E-005    -9.3974903813548449E-014
   7.2666666666666667E-005     5.5657992862993833E-014
   7.2866666666666658E-005     2.4343680825496261E-013
   7.3066666666666663E-005     4.5682831432622417E-013
   7.3266666666666654E-005     6.7631940629461762E-013
   7.3466666666666659E-005     8.7583645847974512E-013
   7.3666666666666664E-005     1.0241159049267923E-012
   7.3866666666666655E-005     1.0871271331064358E-012
   7.4066666666666660E-005     1.0315472434574424E-012
   7.4266666666666665E-005     8.2915168871447453E-013
   7.4466666666666656E-005     4.6183445522735012E-013
   7.4666666666666661E-005    -7.3188566210129202E-014
   7.4866666666666666E-005    -7.5858937187422981E-013
   7.5066666666666657E-005    -1.5532606667881255E-012
   7.5266666666666662E-005    -2.3905437091659154E-012
   7.5466666666666653E-005    -3.1791047658963345E-012