  -3.3333333333333335E-005     0.0000000000000000     
  -3.3133333333333337E-005     0.0000000000000000     
  -3.2933333333333332E-005     0.0000000000000000     
  -3.2733333333333334E-005     0.0000000000000000     
  -3.2533333333333336E-005     0.0000000000000000     
  -3.2333333333333338E-005     0.0000000000000000     
  -3.2133333333333333E-005     0.0000000000000000     
  -3.1933333333333335E-005     0.0000000000000000     
  -3.1733333333333337E-005     0.0000000000000000     
  -3.1533333333333332E-005     0.0000000000000000     
  -3.1333333333333334E-005     0.0000000000000000     
  -3.1133333333333336E-005     0.0000000000000000     
  -3.0933333333333338E-005     0.0000000000000000     
  -3.0733333333333333E-005     0.0000000000000000     
  -3.0533333333333335E-005     0.0000000000000000     
  -3.0333333333333337E-005     0.0000000000000000     
  -3.0133333333333335E-005     0.0000000000000000     
  -2.9933333333333334E-005     0.0000000000000000     
  -2.9733333333333336E-005     0.0000000000000000     
  -2.9533333333333334E-005     0.0000000000000000     
  -2.9333333333333336E-005     0.0000000000000000     
  -2.9133333333333334E-005     0.0000000000000000     
  -2.8933333333333336E-005     0.0000000000000000     
  -2.8733333333333335E-005     0.0000000000000000     
  -2.8533333333333333E-005     0.0000000000000000     
  -2.8333333333333335E-005     0.0000000000000000     
  -2.8133333333333337E-005     0.0000000000000000     
  -2.7933333333333336E-005     0.0000000000000000     
  -2.7733333333333334E-005     0.0000000000000000     
  -2.7533333333333336E-005     0.0000000000000000     
  -2.7333333333333335E-005     0.0000000000000000     
  -2.7133333333333333E-005     0.0000000000000000     
  -2.6933333333333335E-005     0.0000000000000000     
  -2.6733333333333337E-005     0.0000000000000000     
  -2.6533333333333336E-005     0.0000000000000000     
  -2.6333333333333334E-005     0.0000000000000000     
  -2.6133333333333336E-005     0.0000000000000000     
  -2.5933333333333335E-005     0.0000000000000000     
  -2.5733333333333333E-005     0.0000000000000000     
  -2.5533333333333335E-005     0.0000000000000000     
  -2.5333333333333337E-005     0.0000000000000000     
  -2.5133333333333336E-005     1.7104253733322981E-040
  -2.4933333333333334E-005     5.0453192418405826E-040
  -2.4733333333333336E-005     1.7436956174780916E-039
  -2.4533333333333334E-005     4.7888625363093254E-039
  -2.4333333333333333E-005     3.2608750202596613E-039
  -2.4133333333333335E-005    -2.2254444463141835E-038
  -2.3933333333333337E-005    -9.1685124676351823E-038
  -2.3733333333333335E-005    -3.1829750148620234E-037
  -2.3533333333333334E-005    -8.8602883347674606E-037
  -2.3333333333333336E-005    -2.0410762464981737E-036
  -2.3133333333333338E-005    -3.7846272960854849E-036
  -2.2933333333333336E-005    -5.0204013526658449E-036
  -2.2733333333333335E-005    -1.5796065820669038E-036
  -2.2533333333333337E-005     1.7139932728088296E-035
  -2.2333333333333335E-005     7.1894778294792554E-035
  -2.2133333333333334E-005     1.9286162095015089E-034
  -2.1933333333333336E-005     4.0212499999270000E-034
  -2.1733333333333338E-005     6.5636849595848340E-034
  -2.1533333333333336E-005     7.1946006174042559E-034
  -2.1333333333333335E-005    -5.0228346701775226E-035
  -2.1133333333333337E-005    -2.9382548701331146E-033
  -2.0933333333333335E-005    -9.8938873349099395E-033
  -2.0733333333333334E-005    -2.2759322861657928E-032
  -2.0533333333333336E-005    -4.0733986625800404E-032
  -2.0333333333333337E-005    -5.4931751624759850E-032
  -2.0133333333333336E-005    -3.9671881768966965E-032
  -1.9933333333333334E-005     5.6953422783482560E-032
  -1.9733333333333336E-005     3.1441198376831633E-031
  -1.9533333333333335E-005     8.1431656233910566E-031
  -1.9333333333333333E-005     1.5594855950391130E-030
  -1.9133333333333335E-005     2.3081129444098441E-030
  -1.8933333333333337E-005     2.3214838453511726E-030
  -1.8733333333333336E-005     1.0558502587148251E-031
  -1.8533333333333334E-005    -6.6171110994113144E-030
  -1.8333333333333336E-005    -2.0254425782398390E-029
  -1.8133333333333335E-005    -4.1380429968162480E-029
  -1.7933333333333337E-005    -6.4915371508861558E-029
  -1.7733333333333335E-005    -7.4616893445249549E-029
  -1.7533333333333337E-005    -3.7803447779283358E-029
  -1.7333333333333336E-005     9.4801499069763479E-029
  -1.7133333333333334E-005     3.7561569979278500E-028
  -1.6933333333333336E-005     8.2242474266314562E-028
  -1.6733333333333335E-005     1.3486630329960715E-027
  -1.6533333333333337E-005     1.6680004413549761E-027
  -1.6333333333333335E-005     1.2091164638497131E-027
  -1.6133333333333337E-005    -8.7831829283881852E-028
  -1.5933333333333336E-005    -5.4972876684882306E-027
  -1.5733333333333334E-005    -1.3008544549260960E-026
  -1.5533333333333336E-005    -2.2183608019944525E-026
  -1.5333333333333334E-005    -2.8836213343012294E-026
  -1.5133333333333336E-005    -2.4671862841816949E-026
  -1.4933333333333335E-005     2.5362435447411618E-027
  -1.4733333333333337E-005     6.5800477762848565E-026
  -1.4533333333333335E-005     1.7106649197466242E-025
  -1.4333333333333337E-005     3.0389642027875026E-025
  -1.4133333333333336E-005     4.1263327788037477E-025
  -1.3933333333333334E-005     3.9473596198516389E-025
  -1.3733333333333336E-005     9.9095414925008795E-026
  -1.3533333333333335E-005    -6.3767509648032030E-025
  -1.3333333333333337E-005    -1.9031467487337541E-024
  -1.3133333333333335E-005    -3.5628768013914545E-024
  -1.2933333333333337E-005    -5.0784140467259238E-024
  -1.2733333333333336E-005    -5.3590100374283604E-024
  -1.2533333333333338E-005    -2.7742823998010497E-024
  -1.2333333333333336E-005     4.4997035110477991E-024
  -1.2133333333333335E-005     1.7635614056128661E-023
  -1.1933333333333337E-005     3.5756544150667211E-023
  -1.1733333333333335E-005     5.4187088257061567E-023
  -1.1533333333333337E-005     6.2965923775157679E-023
  -1.1333333333333336E-005     4.6716966303494895E-023
  -1.1133333333333337E-005    -1.2655801180844275E-023
  -1.0933333333333336E-005    -1.2904826983372080E-022
  -1.0733333333333334E-005    -3.0048638782001406E-022
  -1.0533333333333336E-005    -4.9417952849568756E-022
  -1.0333333333333335E-005    -6.3289137237996313E-022
  -1.0133333333333337E-005    -5.9088267890456694E-022
  -9.9333333333333354E-006    -2.1050126080660750E-022
  -9.7333333333333373E-006     6.4971165319279605E-022
  -9.5333333333333358E-006     2.0303329128015333E-021
  -9.3333333333333343E-006     3.7581436633987779E-021
  -9.1333333333333362E-006     5.3343634588179249E-021
  -8.9333333333333348E-006     5.8783268169617237E-021
  -8.7333333333333367E-006     4.2010720166494567E-021
  -8.5333333333333352E-006    -9.1472396980615006E-022
  -8.3333333333333371E-006    -1.0183928590245315E-020
  -8.1333333333333356E-006    -2.3070934839760591E-020
  -7.9333333333333376E-006    -3.6983466051083279E-020
  -7.7333333333333361E-006    -4.6719820465254868E-020
  -7.5333333333333346E-006    -4.4613456672461321E-020
  -7.3333333333333365E-006    -2.1857532169455600E-020
  -7.1333333333333351E-006     2.8650631415282662E-020
  -6.9333333333333370E-006     1.0799956980729496E-019
  -6.7333333333333355E-006     2.0620355181685235E-019
  -6.5333333333333374E-006     2.9794422787245184E-019
  -6.3333333333333359E-006     3.4145168426383253E-019
  -6.1333333333333379E-006     2.8323429536022841E-019
  -5.9333333333333364E-006     7.0887561487696939E-020
  -5.7333333333333349E-006    -3.2549610101953178E-019
  -5.5333333333333368E-006    -8.8586408458120913E-019
  -5.3333333333333354E-006    -1.5133290124439803E-018
  -5.1333333333333373E-006    -2.0186896777744319E-018
  -4.9333333333333358E-006    -2.1297957936163334E-018
  -4.7333333333333377E-006    -1.5383371461575044E-018
  -4.5333333333333362E-006     9.5851969534742599E-021
  -4.3333333333333348E-006     2.5852252341529025E-018
  -4.1333333333333367E-006     5.9352207203104488E-018
  -3.9333333333333352E-006     9.3694088717804334E-018
  -3.7333333333333371E-006     1.1737133278384234E-017
  -3.5333333333333356E-006     1.1553350767620701E-017
  -3.3333333333333376E-006     7.3177281080244578E-018
  -3.1333333333333361E-006    -1.9740174773871527E-018
  -2.9333333333333346E-006    -1.6195630072727532E-017
  -2.7333333333333365E-006    -3.3483310759824463E-017
  -2.5333333333333384E-006    -4.9880410390795575E-017
  -2.3333333333333336E-006    -5.9492866212196240E-017
  -2.1333333333333355E-006    -5.5378678225531242E-017
  -1.9333333333333374E-006    -3.1263902163875540E-017
  -1.7333333333333393E-006     1.6051841297623208E-017
  -1.5333333333333345E-006     8.4037592367823775E-017
  -1.3333333333333364E-006     1.6226255060732693E-016
  -1.1333333333333383E-006     2.3166764461534812E-016
  -9.3333333333333343E-007     2.6622647283614688E-016
  -7.3333333333333535E-007     2.3763285338253021E-016
  -5.3333333333333726E-007     1.2298649502758885E-016
  -3.3333333333333918E-007    -8.5519630437384545E-017
  -1.3333333333333432E-007    -3.7100180095879696E-016
   6.6666666666663770E-008    -6.8539884933243283E-016
   2.6666666666666185E-007    -9.4951402043310947E-016
   4.6666666666666672E-007    -1.0625049766680550E-015
   6.6666666666666480E-007    -9.2212456807062830E-016
   8.6666666666666289E-007    -4.5430060719870443E-016
   1.0666666666666610E-006     3.5278691779184819E-016
   1.2666666666666658E-006     1.4183640341746173E-015
   1.4666666666666639E-006     2.5529874537128762E-015
   1.6666666666666620E-006     3.4673494959146455E-015
   1.8666666666666669E-006     3.8135216139372302E-015
   2.0666666666666649E-006     3.2597086135957827E-015
   2.2666666666666630E-006     1.5902556498574658E-015
   2.4666666666666611E-006    -1.1878567211854936E-015
   2.6666666666666660E-006    -4.7598093731351553E-015
   2.8666666666666641E-006    -8.4711942490484432E-015
   3.0666666666666622E-006    -1.1378675141793579E-014
   3.2666666666666602E-006    -1.2399322767688513E-014
   3.4666666666666651E-006    -1.0553173920731611E-014
   3.6666666666666632E-006    -5.2655292040685434E-015
   3.8666666666666613E-006     3.3326972498864423E-015
   4.0666666666666661E-006     1.4189267159586366E-014
   4.2666666666666642E-006     2.5287225641598115E-014
   4.4666666666666623E-006     3.3844248188272929E-014
   4.6666666666666604E-006     3.6782765374300145E-014
   4.8666666666666652E-006     3.1435190936624623E-014
   5.0666666666666633E-006     1.6374005337903607E-014
   5.2666666666666614E-006    -7.8122936609542857E-015
   5.4666666666666663E-006    -3.8018424699135713E-014
   5.6666666666666644E-006    -6.8614290934116497E-014
   5.8666666666666624E-006    -9.2084919062564093E-014
   6.0666666666666605E-006    -1.0035144564345403E-013
   6.2666666666666654E-006    -8.6639428316729521E-014
   6.4666666666666635E-006    -4.7578833556834799E-014
   6.6666666666666616E-006     1.4931099540914874E-014
   6.8666666666666664E-006     9.2634923513610582E-014
   7.0666666666666645E-006     1.7111102718961193E-013
   7.2666666666666626E-006     2.3155459728001960E-013
   7.4666666666666607E-006     2.5415564701324429E-013
   7.6666666666666655E-006     2.2267283714024868E-013
   7.8666666666666636E-006     1.2939618979578088E-013
   8.0666666666666617E-006    -2.0624066383245028E-014
   8.2666666666666598E-006    -2.0732095526715657E-013
   8.4666666666666647E-006    -3.9640549861207823E-013
   8.6666666666666627E-006    -5.4382005835698183E-013
   8.8666666666666608E-006    -6.0371840827152083E-013
   9.0666666666666657E-006    -5.3894362750761398E-013
   9.2666666666666638E-006    -3.3210966779113676E-013
   9.4666666666666619E-006     5.2301893039046603E-015
   9.6666666666666599E-006     4.2800108679452007E-013
   9.8666666666666648E-006     8.5983707651707068E-013
   1.0066666666666663E-005     1.2032544304986396E-012
   1.0266666666666661E-005     1.3572725120180237E-012
   1.0466666666666666E-005     1.2400970752133953E-012
   1.0666666666666664E-005     8.1271801499702770E-013
   1.0866666666666662E-005     9.8093061993285070E-014
   1.1066666666666660E-005    -8.0959237301437237E-013
   1.1266666666666665E-005    -1.7500329345031118E-012
   1.1466666666666663E-005    -2.5183504196695604E-012
   1.1666666666666661E-005    -2.9017835659434457E-012
   1.1866666666666666E-005    -2.7264145063075608E-012
   1.2066666666666664E-005    -1.9053694088373655E-012
   1.2266666666666662E-005    -4.7773004558212473E-013
   1.2466666666666660E-005     1.3727570555859446E-012
   1.2666666666666665E-005     3.3278041197755523E-012
   1.2866666666666663E-005     4.9773234912301371E-012
   1.3066666666666661E-005     5.8919166184877402E-012
   1.3266666666666666E-005     5.7148715132873438E-012
   1.3466666666666664E-005     4.2568136890889724E-012
   1.3666666666666662E-005     1.5722289957382878E-012
   1.3866666666666660E-005    -2.0031079074441533E-012
   1.4066666666666665E-005    -5.8699861448549704E-012
   1.4266666666666663E-005    -9.2458725571621311E-012
   1.4466666666666661E-005    -1.1301524240826409E-011
   1.4666666666666666E-005    -1.1334554529966230E-011
   1.4866666666666664E-005    -8.9482984141022360E-012
   1.5066666666666662E-005    -4.1971675374515212E-012
   1.5266666666666661E-005     2.3401907712124898E-012
   1.5466666666666665E-005     9.5896730530417721E-012
   1.5666666666666663E-005     1.6124903165579695E-011
   1.5866666666666662E-005     2.0414143942078149E-011
   1.6066666666666660E-005     2.1135144378376070E-011
   1.6266666666666665E-005     1.7500658743880849E-011
   1.6466666666666663E-005     9.5246786577451936E-012
   1.6666666666666661E-005    -1.8396972232200535E-012
   1.6866666666666666E-005    -1.4743677548543933E-011
   1.7066666666666664E-005    -2.6689421328314734E-011
   1.7266666666666662E-005    -3.4960791414625380E-011
   1.7466666666666660E-005    -3.7175169289355498E-011
   1.7666666666666665E-005    -3.1855948760745467E-011
   1.7866666666666663E-005    -1.8903855758820894E-011
   1.8066666666666661E-005     1.5301466984220096E-013
   1.8266666666666666E-005     2.2221596802832812E-011
   1.8466666666666664E-005     4.3056628606850875E-011
   1.8666666666666662E-005     5.7990983116973818E-011
   1.8866666666666660E-005     6.2875997930037332E-011
   1.9066666666666665E-005     5.5061039069848004E-011
   1.9266666666666663E-005     3.4205794158188811E-011
   1.9466666666666661E-005     2.7221295890147935E-012
   1.9666666666666666E-005    -3.4308514770982056E-011
   1.9866666666666664E-005    -6.9806980479202095E-011
   2.0066666666666662E-005    -9.5904252155177466E-011
   2.0266666666666660E-005    -1.0550780614741074E-010
   2.0466666666666665E-005    -9.3944397730944507E-011
   2.0666666666666663E-005    -6.0338015657702595E-011
   2.0866666666666661E-005    -8.3866833561624950E-012
   2.1066666666666659E-005     5.3719077450231680E-011
   2.1266666666666664E-005     1.1434784926936753E-010
   2.1466666666666662E-005     1.6036976088754190E-010
   2.1666666666666660E-005     1.7970901717443229E-010
   2.1866666666666665E-005     1.6405508253221953E-010
   2.2066666666666663E-005     1.1118263432477298E-010
   2.2266666666666661E-005     2.6333886445971011E-011
   2.2466666666666659E-005    -7.7761948640337170E-011
   2.2666666666666664E-005    -1.8243103686526792E-010
   2.2866666666666662E-005    -2.6605751390472230E-010
   2.3066666666666660E-005    -3.0812629559414935E-010
   2.3266666666666665E-005    -2.9361107554791463E-010
   2.3466666666666663E-005    -2.1684791318147480E-010
   2.3666666666666661E-005    -8.4026962132891254E-011
   2.3866666666666660E-005     8.6395427086093666E-011
   2.4066666666666664E-005     2.6572409986557866E-010
   2.4266666666666662E-005     4.1939837350761668E-010
   2.4466666666666661E-005     5.1312859495799444E-010
   2.4666666666666665E-005     5.1977956707939316E-010
   2.4866666666666663E-005     4.2571134643021561E-010
   2.5066666666666662E-005     2.3523928805673917E-010
   2.5266666666666660E-005    -2.7904046067229080E-011
   2.5466666666666665E-005    -3.2275505781715711E-010
   2.5666666666666663E-005    -5.9694783356029779E-010
   2.5866666666666661E-005    -7.9545896248696037E-010
   2.6066666666666666E-005    -8.7088258911874902E-010
   2.6266666666666664E-005    -7.9340291467529917E-010
   2.6466666666666662E-005    -5.5849465863280329E-010
   2.6666666666666660E-005    -1.9062650812113713E-010
   2.6866666666666665E-005     2.5815418569498998E-010
   2.7066666666666663E-005     7.1499672074624573E-010
   2.7266666666666661E-005     1.0976124967210280E-009
   2.7466666666666666E-005     1.3285097398882856E-009
   2.7666666666666664E-005     1.3496792292448192E-009
   2.7866666666666662E-005     1.1350219158007754E-009
   2.8066666666666667E-005     6.9801521439206456E-010
   2.8266666666666658E-005     9.2810966738803359E-011
   2.8466666666666663E-005    -5.9193749551781355E-010
   2.8666666666666668E-005    -1.2459247768045345E-009
   2.8866666666666659E-005    -1.7548432121106315E-009
   2.9066666666666664E-005    -2.0199534062602833E-009
   2.9266666666666669E-005    -1.9761830383690037E-009
   2.9466666666666660E-005    -1.6054405153662215E-009
   2.9666666666666665E-005    -9.4254816449282539E-010
   2.9866666666666656E-005    -7.2416900481022627E-011
   3.0066666666666661E-005     8.8139211021048322E-010
   3.0266666666666666E-005     1.7750250282853313E-009
   3.0466666666666657E-005     2.4666510953373511E-009
   3.0666666666666662E-005     2.8390166434471659E-009
   3.0866666666666667E-005     2.8184400649461433E-009
   3.1066666666666658E-005     2.3870631808285607E-009
   3.1266666666666663E-005     1.5863721583238044E-009
   3.1466666666666668E-005     5.1154787125806890E-010
   3.1666666666666659E-005    -7.0219284093113971E-010
   3.1866666666666664E-005    -1.8987755783459793E-009
   3.2066666666666656E-005    -2.9226576898356700E-009
   3.2266666666666660E-005    -3.6389729513412593E-009
   3.2466666666666665E-005    -3.9494993385800494E-009
   3.2666666666666657E-005    -3.8025609593991499E-009
   3.2866666666666661E-005    -3.1963136977774567E-009
   3.3066666666666666E-005    -2.1761297338613505E-009
   3.3266666666666658E-005    -8.2776686292047158E-010
   3.3466666666666662E-005     7.3160407820624976E-010
   3.3666666666666667E-005     2.3626577793660163E-009
   3.3866666666666659E-005     3.9123475081723696E-009
   3.4066666666666664E-005     5.2214712644302300E-009
   3.4266666666666668E-005     6.1323263522688130E-009
   3.4466666666666660E-005     6.4980693837404187E-009
   3.4666666666666665E-005     6.1953760785800780E-009
   3.4866666666666656E-005     5.1412128039893030E-009
   3.5066666666666661E-005     3.3130576994408332E-009
   3.5266666666666666E-005     7.7006060035653254E-010
   3.5466666666666657E-005    -2.3292065202500681E-009
   3.5666666666666662E-005    -5.7179412646705203E-009
   3.5866666666666667E-005    -9.0269124742820140E-009
   3.6066666666666658E-005    -1.1809286924986501E-008
   3.6266666666666663E-005    -1.3586163214333070E-008
   3.6466666666666668E-005    -1.3910672917240209E-008
   3.6666666666666659E-005    -1.2444081932344034E-008
   3.6866666666666664E-005    -9.0332407005977930E-009
   3.7066666666666669E-005    -3.7758422613887124E-009
   3.7266666666666660E-005     2.9408378943531822E-009
   3.7466666666666665E-005     1.0440222627292607E-008
   3.7666666666666656E-005     1.7803748536487545E-008
   3.7866666666666661E-005     2.3966254815100976E-008
   3.8066666666666666E-005     2.7852322360171045E-008
   3.8266666666666657E-005     2.8538047979596359E-008
   3.8466666666666662E-005     2.5415879045998861E-008
   3.8666666666666667E-005     1.8336134695837152E-008
   3.8866666666666658E-005     7.6989860367116575E-009
   3.9066666666666663E-005    -5.5249938653087684E-009
   3.9266666666666668E-005    -1.9858507719168157E-008
   3.9466666666666659E-005    -3.3466467772129192E-008
   3.9666666666666664E-005    -4.4377478974998583E-008
   3.9866666666666655E-005    -5.0752251977128943E-008
   4.0066666666666660E-005    -5.1163262015291820E-008
   4.0266666666666665E-005    -4.4844571093594561E-008
   4.0466666666666656E-005    -3.1871479909992243E-008
   4.0666666666666661E-005    -1.3236759059189958E-008
   4.0866666666666666E-005     9.1968516807930600E-009
   4.1066666666666657E-005     3.2871240808374040E-008
   4.1266666666666662E-005     5.4819426971477651E-008
   4.1466666666666667E-005     7.2031237060651587E-008
   4.1666666666666658E-005     8.1851974433934339E-008
   4.1866666666666663E-005     8.2360581585374723E-008
   4.2066666666666668E-005     7.2674134164243357E-008
   4.2266666666666660E-005     5.3133452491268404E-008
   4.2466666666666664E-005     2.5339358096194403E-008
   4.2666666666666656E-005    -7.9711639526354760E-009
   4.2866666666666661E-005    -4.3198526858305397E-008
   4.3066666666666665E-005    -7.6273293850620729E-008
   4.3266666666666657E-005    -1.0312153149021146E-007
   4.3466666666666662E-005    -1.2014671564587297E-007
   4.3666666666666666E-005    -1.2467012129839817E-007
   4.3866666666666658E-005    -1.1527744999732472E-007
   4.4066666666666663E-005    -9.2031383317468053E-008
   4.4266666666666667E-005    -5.6526596029183327E-008
   4.4466666666666659E-005    -1.1782388849236104E-008
   4.4666666666666664E-005     3.8014459309426386E-008
   4.4866666666666655E-005     8.7888859896715551E-008
   4.5066666666666660E-005     1.3254079223925357E-007
   4.5266666666666665E-005     1.6684975177204272E-007
   4.5466666666666656E-005     1.8637681604970767E-007
   4.5666666666666661E-005     1.8782399887040232E-007
   4.5866666666666666E-005     1.6941567787669411E-007
   4.6066666666666657E-005     1.3117356783239624E-007
   4.6266666666666662E-005     7.5061883443367286E-008
   4.6466666666666667E-005     4.9846872281179279E-009
   4.6666666666666658E-005    -7.3377063713459993E-008
   4.6866666666666663E-005    -1.5289617697903827E-007
   4.7066666666666668E-005    -2.2549626706884849E-007
   4.7266666666666659E-005    -2.8280239890490238E-007
   4.7466666666666664E-005    -3.1691686262760669E-007
   4.7666666666666655E-005    -3.2127267223669168E-007
   4.7866666666666660E-005    -2.9149611036486183E-007
   4.8066666666666665E-005    -2.2619183907568114E-007
   4.8266666666666656E-005    -1.2754892304196954E-007
   4.8466666666666661E-005    -1.6648363012360902E-009
   4.8666666666666666E-005     1.4150706428343643E-007
   4.8866666666666657E-005     2.8865354451334662E-007
   4.9066666666666662E-005     4.2406669495998255E-007
   4.9266666666666667E-005     5.3104845739491015E-007
   4.9466666666666658E-005     5.9366229641518151E-007
   4.9666666666666663E-005     5.9867738623707817E-007
   4.9866666666666655E-005     5.3749922385845389E-007
   5.0066666666666659E-005     4.0784575584825325E-007
   5.0266666666666664E-005     2.1492413905752540E-007
   5.0466666666666656E-005    -2.8112760392583569E-008
   5.0666666666666660E-005    -3.0059007247036128E-007
   5.0866666666666665E-005    -5.7568702585522852E-007
   5.1066666666666657E-005    -8.2272746794744762E-007
   5.1266666666666661E-005    -1.0102268135711021E-006
   5.1466666666666666E-005    -1.1094255696674067E-006
   5.1666666666666658E-005    -1.0979472021135298E-006
   5.1866666666666662E-005    -9.6315971635288571E-007
   5.2066666666666667E-005    -7.0481250231787436E-007
   5.2266666666666659E-005    -3.3655594165553609E-007
   5.2466666666666664E-005     1.1395569138139081E-007
   5.2666666666666655E-005     6.0654453088384902E-007
   5.2866666666666660E-005     1.0915733587755959E-006
   5.3066666666666665E-005     1.5144174565305059E-006
   5.3266666666666656E-005     1.8209891492314682E-006
   5.3466666666666661E-005     1.9638147760737545E-006
   5.3666666666666666E-005     1.9080513391084141E-006
   5.3866666666666657E-005     1.6367808603233057E-006
   5.4066666666666662E-005     1.1549301164757137E-006
   5.4266666666666667E-005     4.9124692577206473E-007
   5.4466666666666658E-005    -3.0209242159291509E-007
   5.4666666666666663E-005    -1.1524667689028168E-006
   5.4866666666666668E-005    -1.9723632417919372E-006
   5.5066666666666659E-005    -2.6672093587701697E-006
   5.5266666666666664E-005    -3.1449242756098521E-006
   5.5466666666666655E-005    -3.3263839728887704E-006
   5.5666666666666660E-005    -3.1557957353862248E-006
   5.5866666666666665E-005    -2.6098547107894762E-006
   5.6066666666666656E-005    -1.7045324221608376E-006
   5.6266666666666661E-005    -4.9843150350216242E-007
   5.6466666666666666E-005     9.0813742030667234E-007
   5.6666666666666657E-005     2.3788700796776477E-006
   5.6866666666666662E-005     3.7520278928225840E-006
   5.7066666666666667E-005     4.8553799106737320E-006
   5.7266666666666658E-005     5.5244857364590412E-006
   5.7466666666666663E-005     5.6227485241685932E-006
   5.7666666666666654E-005     5.0612045536820655E-006
   5.7866666666666659E-005     3.8157308701742085E-006
   5.8066666666666664E-005     1.9392793487719946E-006
   5.8266666666666655E-005    -4.3305157475244988E-007
   5.8466666666666660E-005    -3.0877967068764813E-006
   5.8666666666666665E-005    -5.7466656294011422E-006
   5.8866666666666656E-005    -8.0897360542364937E-006
   5.9066666666666661E-005    -9.7870361943116940E-006
   5.9266666666666666E-005    -1.0536030166461860E-005
   5.9466666666666657E-005    -1.0101479767775746E-005
   5.9666666666666662E-005    -8.3533059259986751E-006
   5.9866666666666667E-005    -5.2976869977995223E-006
   6.0066666666666659E-005    -1.0967325905656140E-006
   6.0266666666666663E-005     3.9272491108213779E-006
   6.0466666666666655E-005     9.3056016172935297E-006
   6.0666666666666660E-005     1.4456256717369746E-005
   6.0866666666666664E-005     1.8734598497883862E-005
   6.1066666666666656E-005     2.1498861087582087E-005
   6.1266666666666661E-005     2.2184494931929583E-005
   6.1466666666666665E-005     2.0380180744287949E-005
   6.1666666666666657E-005     1.5897005745420484E-005
   6.1866666666666662E-005     8.8220325668902682E-006
   6.2066666666666666E-005    -4.5187218584905319E-007
   6.2266666666666658E-005    -1.1226409986611498E-005
   6.2466666666666663E-005    -2.2532278262169502E-005
   6.2666666666666668E-005    -3.3198203220171136E-005
   6.2866666666666659E-005    -4.1951369060888694E-005
   6.3066666666666664E-005    -4.7542161600401700E-005
   6.3266666666666655E-005    -4.8882734073865933E-005
   6.3466666666666660E-005    -4.5186107407409522E-005
   6.3666666666666665E-005    -3.6090955000839803E-005
   6.3866666666666656E-005    -2.1757070324495747E-005
   6.4066666666666661E-005    -2.9179102545779943E-006
   6.4266666666666666E-005     1.9120489660383275E-005
   6.4466666666666657E-005     4.2540394971659609E-005
   6.4666666666666662E-005     6.5133831295714314E-005
   6.4866666666666667E-005     8.4479148966736775E-005
   6.5066666666666658E-005     9.8161072573083188E-005
   6.5266666666666663E-005     1.0401674570529659E-004
   6.5466666666666654E-005     1.0038599215271930E-004
   6.5666666666666659E-005     8.6340938836022518E-005
   6.5866666666666664E-005     6.1869562747756055E-005
   6.6066666666666655E-005     2.7989744756763953E-005
   6.6266666666666660E-005    -1.3225523322176978E-005
   6.6466666666666665E-005    -5.8724258519224544E-005
   6.6666666666666656E-005    -1.0465687172097064E-004
   6.6866666666666661E-005    -1.4665678432889588E-004
   6.7066666666666666E-005    -1.8020386751777833E-004
   6.7266666666666657E-005    -2.0104450088784508E-004
   6.7466666666666662E-005    -2.0563355018054358E-004
   6.7666666666666667E-005    -1.9155771543893894E-004
   6.7866666666666658E-005    -1.5789734765638293E-004
   6.8066666666666663E-005    -1.0548476594945757E-004
   6.8266666666666655E-005    -3.7022913527830570E-005
   6.8466666666666659E-005     4.2962066557576053E-005
   6.8666666666666664E-005     1.2834795845051710E-004
   6.8866666666666656E-005     2.1182058387337954E-004
   6.9066666666666660E-005     2.8543508550763158E-004
   6.9266666666666665E-005     3.4129718477325091E-004
   6.9466666666666657E-005     3.7231216299773258E-004
   6.9666666666666661E-005     3.7293650000502613E-004
   6.9866666666666666E-005     3.3986150254549611E-004
   7.0066666666666658E-005     2.7255589661450406E-004
   7.0266666666666662E-005     1.7360236901788241E-004
   7.0466666666666654E-005     4.8774260907536831E-005
   7.0666666666666659E-005    -9.3180353274102096E-005
   7.0866666666666664E-005    -2.4105568911776180E-004
   7.1066666666666655E-005    -3.8198732591303622E-004
   7.1266666666666660E-005    -5.0248485143366216E-004
   7.1466666666666665E-005    -5.8962298251403144E-004
   7.1666666666666656E-005    -6.3229412163071693E-004
   7.1866666666666661E-005    -6.2240929911921994E-004
   7.2066666666666666E-005    -5.5593045088144855E-004
   7.2266666666666657E-005    -4.3362053993156540E-004
   7.2466666666666662E-005    -2.6141593390405427E-004
   7.2666666666666667E-005    -5.0351510529117889E-005
   7.2866666666666658E-005     1.8399488572981958E-004
   7.3066666666666663E-005     4.2252815006507504E-004
   7.3266666666666654E-005     6.4407839295128042E-004
   7.3466666666666659E-005     8.2716107959991247E-004
   7.3666666666666664E-005     9.5191874544417986E-004
   7.3866666666666655E-005     1.0020792265259496E-003
   7.4066666666666660E-005     9.6674960989949531E-004
   7.4266666666666665E-005     8.4186699416045560E-004
   7.4466666666666656E-005     6.3114335028325425E-004
   7.4666666666666661E-005     3.4637597829478899E-004
   7.4866666666666666E-005     7.0440250969963083E-006
   7.5066666666666657E-005    -3.6082940442846084E-004
   7.5266666666666662E-005    -7.2650273509536584E-004
   7.5466666666666653E-005    -1.0569170660816043E-003