  -3.3333333333333335E-005     0.0000000000000000     
  -3.3133333333333337E-005   -0.91320560394387940     
  -3.2933333333333332E-005    -2.2745149859049545     
  -3.2733333333333334E-005    -3.2649628788358536     
  -3.2533333333333336E-005    -3.0535004657915237     
  -3.2333333333333338E-005    -1.1749829425749738     
  -3.2133333333333333E-005     2.1952824424864650     
  -3.1933333333333335E-005     6.1770314058427571     
  -3.1733333333333337E-005     9.3661082023713558     
  -3.1533333333333332E-005     10.211903084809935     
  -3.1333333333333334E-005     7.4727691598382515     
  -3.1133333333333336E-005    0.60149630070343962     
  -3.0933333333333338E-005    -10.066669305641042     
  -3.0733333333333333E-005    -23.387170379112710     
  -3.0533333333333335E-005    -37.718622137307733     
  -3.0333333333333337E-005    -51.374491345640322     
  -3.0133333333333335E-005    -63.069279486257543     
  -2.9933333333333334E-005    -72.218600769614909     
  -2.9733333333333336E-005    -79.003512587558433     
  -2.9533333333333334E-005    -84.189676149941846     
  -2.9333333333333336E-005    -88.773843012905061     
  -2.9133333333333334E-005    -93.585832310850364     
  -2.8933333333333336E-005    -98.985180089164800     
  -2.8733333333333335E-005    -104.75473804466836     
  -2.8533333333333333E-005    -110.22201126690544     
  -2.8333333333333335E-005    -114.55843208907095     
  -2.8133333333333337E-005    -117.14438665917095     
  -2.7933333333333336E-005    -117.86565959392492     
  -2.7733333333333334E-005    -117.23187884287569     
  -2.7533333333333336E-005    -116.27073443581925     
  -2.7333333333333335E-005    -116.23059893634409     
  -2.7133333333333333E-005    -118.19162535549938     
  -2.6933333333333335E-005    -122.71783816561314     
  -2.6733333333333337E-005    -129.66908950002880     
  -2.6533333333333336E-005    -138.23718029804382     
  -2.6333333333333334E-005    -147.19395686528077     
  -2.6133333333333336E-005    -155.26710877374910     
  -2.5933333333333335E-005    -161.51657600296573     
  -2.5733333333333333E-005    -165.58579473692441     
  -2.5533333333333335E-005    -167.74547965118040     
  -2.5333333333333337E-005    -168.71975460829353     
  -2.5133333333333336E-005    -169.35806302720763     
  -2.4933333333333334E-005    -170.26795086485976     
  -2.4733333333333336E-005    -171.53506647150749     
  -2.4533333333333334E-005    -172.62479631903784     
  -2.4333333333333333E-005    -172.49577811792375     
  -2.4133333333333335E-005    -169.88288557294976     
  -2.3933333333333337E-005    -163.64965923171377     
  -2.3733333333333335E-005    -153.08845227247195     
  -2.3533333333333334E-005    -138.06728073887689     
  -2.3333333333333336E-005    -118.97702616849273     
  -2.3133333333333338E-005    -96.502956567659169     
  -2.2933333333333336E-005    -71.304909755338429     
  -2.2733333333333335E-005    -43.720669686465385     
  -2.2533333333333337E-005    -13.597086744601341     
  -2.2333333333333335E-005     19.692625736893703     
  -2.2133333333333334E-005     57.052847207191249     
  -2.1933333333333336E-005     99.360410984736973     
  -2.1733333333333338E-005     147.15695837383123     
  -2.1533333333333336E-005     200.44547036137976     
  -2.1333333333333335E-005     258.66017755565855     
  -2.1133333333333337E-005     320.81824099466962     
  -2.0933333333333335E-005     385.79981046954862     
  -2.0733333333333334E-005     452.65917164949718     
  -2.0533333333333336E-005     520.86210184279878     
  -2.0333333333333337E-005     590.37088933799441     
  -2.0133333333333336E-005     661.55411441909314     
  -1.9933333333333334E-005     734.95842775060737     
  -1.9733333333333336E-005     811.02543467721659     
  -1.9533333333333335E-005     889.85489345237784     
  -1.9333333333333333E-005     971.09475101707721     
  -1.9133333333333335E-005     1053.9935351388012     
  -1.8933333333333337E-005     1137.5896088038951     
  -1.8733333333333336E-005     1220.9678156855678     
  -1.8533333333333334E-005     1303.4878817643707     
  -1.8333333333333336E-005     1384.9033252909503     
  -1.8133333333333335E-005     1465.3285505556387     
  -1.7933333333333337E-005     1545.0668335765363     
  -1.7733333333333335E-005     1624.3605466349259     
  -1.7533333333333337E-005     1703.1527464760209     
  -1.7333333333333336E-005     1780.9432406433482     
  -1.7133333333333334E-005     1856.7883600784703     
  -1.6933333333333336E-005     1929.4424270041482     
  -1.6733333333333335E-005     1997.5903344328447     
  -1.6533333333333337E-005     2060.0883777892377     
  -1.6333333333333335E-005     2116.1296625230771     
  -1.6133333333333337E-005     2165.2794453719416     
  -1.5933333333333336E-005     2207.3712821250178     
  -1.5733333333333334E-005     2242.3041615739066     
  -1.5533333333333336E-005     2269.8155431110622     
  -1.5333333333333334E-005     2289.3109549048395     
  -1.5133333333333336E-005     2299.8103213081877     
  -1.4933333333333335E-005     2300.0266227383563     
  -1.4733333333333337E-005     2288.5473346985004     
  -1.4533333333333335E-005     2264.0528065807775     
  -1.4333333333333337E-005     2225.4929311024489     
  -1.4133333333333336E-005     2172.1632853679089     
  -1.3933333333333334E-005     2103.6584646874658     
  -1.3733333333333336E-005     2019.7264046023502     
  -1.3533333333333335E-005     1920.0832472161164     
  -1.3333333333333337E-005     1804.2650498090948     
  -1.3133333333333335E-005     1671.5762825495397     
  -1.2933333333333337E-005     1521.1623807562819     
  -1.2733333333333336E-005     1352.1869675743169     
  -1.2533333333333338E-005     1164.0576600706172     
  -1.2333333333333336E-005     956.62422589102698     
  -1.2133333333333335E-005     730.28480752666826     
  -1.1933333333333337E-005     485.96589371488596     
  -1.1733333333333335E-005     224.98695696946777     
  -1.1533333333333337E-005    -51.139166547403548     
  -1.1333333333333336E-005    -340.89865737043476     
  -1.1133333333333337E-005    -642.89231299676521     
  -1.0933333333333336E-005    -955.83716453586624     
  -1.0733333333333334E-005    -1278.4548834429447     
  -1.0533333333333336E-005    -1609.2932457698871     
  -1.0333333333333335E-005    -1946.5491039238505     
  -1.0133333333333337E-005    -2287.9617631021283     
  -9.9333333333333354E-006    -2630.8201945389151     
  -9.7333333333333373E-006    -2972.0890921066994     
  -9.5333333333333358E-006    -3308.6100391396440     
  -9.3333333333333343E-006    -3637.3156602221120     
  -9.1333333333333362E-006    -3955.3809216710715     
  -8.9333333333333348E-006    -4260.2672821400974     
  -8.7333333333333367E-006    -4549.6455498101059     
  -8.5333333333333352E-006    -4821.2375950956593     
  -8.3333333333333371E-006    -5072.6397697019474     
  -8.1333333333333356E-006    -5301.1996166158460     
  -7.9333333333333376E-006    -5504.0053555708555     
  -7.7333333333333361E-006    -5678.0017107664244     
  -7.5333333333333346E-006    -5820.2015292233327     
  -7.3333333333333365E-006    -5927.9306565125125     
  -7.1333333333333351E-006    -5999.0294898632274     
  -6.9333333333333370E-006    -6031.9451379465827     
  -6.7333333333333355E-006    -6025.6906933679657     
  -6.5333333333333374E-006    -5979.6919440019055     
  -6.3333333333333359E-006    -5893.5798695110025     
  -6.1333333333333379E-006    -5767.0101003183609     
  -5.9333333333333364E-006    -5599.5753571739078     
  -5.7333333333333349E-006    -5390.8520297382947     
  -5.5333333333333368E-006    -5140.5637199856374     
  -5.3333333333333354E-006    -4848.8121572367418     
  -5.1333333333333373E-006    -4516.2943425763269     
  -4.9333333333333358E-006    -4144.4319259161784     
  -4.7333333333333377E-006    -3735.3662357515650     
  -4.5333333333333362E-006    -3291.8198622956584     
  -4.3333333333333348E-006    -2816.8745265566299     
  -4.1333333333333367E-006    -2313.7386163364936     
  -3.9333333333333352E-006    -1785.5879991463248     
  -3.7333333333333371E-006    -1235.5336565481803     
  -3.5333333333333356E-006    -666.72501216881301     
  -3.3333333333333376E-006    -82.550158339397058     
  -3.1333333333333361E-006     513.14275219788806     
  -2.9333333333333346E-006     1115.8890879437245     
  -2.7333333333333365E-006     1720.5805383217182     
  -2.5333333333333384E-006     2321.5918475066728     
  -2.3333333333333336E-006     2913.0282617978082     
  -2.1333333333333355E-006     3489.0259628432464     
  -1.9333333333333374E-006     4044.0158892922718     
  -1.7333333333333393E-006     4572.8731136011002     
  -1.5333333333333345E-006     5070.9174315978898     
  -1.3333333333333364E-006     5533.7823804890259     
  -1.1333333333333383E-006     5957.2121081715377     
  -9.3333333333333343E-007     6336.8784029356566     
  -7.3333333333333535E-007     6668.2955045963035     
  -5.3333333333333726E-007     6946.8883256572262     
  -3.3333333333333918E-007     7168.2053447137478     
  -1.3333333333333432E-007     7328.2213387771353     
   6.6666666666663770E-008     7423.6476113532954     
   2.6666666666666185E-007     7452.1548436538224     
   4.6666666666666672E-007     7412.4474569953718     
   6.6666666666666480E-007     7304.1771600981292     
   8.6666666666666289E-007     7127.7362727104983     
   1.0666666666666610E-006     6884.0117549724928     
   1.2666666666666658E-006     6574.1935557661873     
   1.4666666666666639E-006     6199.7094005939052     
   1.6666666666666620E-006     5762.3123903447522     
   1.8666666666666669E-006     5264.2950166360770     
   2.0666666666666649E-006     4708.7519209123166     
   2.2666666666666630E-006     4099.7981552185502     
   2.4666666666666611E-006     3442.6602893437985     
   2.6666666666666660E-006     2743.5951656868333     
   2.8666666666666641E-006     2009.6539794643236     
   3.0666666666666622E-006     1248.3522877726284     
   3.2666666666666602E-006     467.34171517943219     
   3.4666666666666651E-006    -325.82444231245677     
   3.6666666666666632E-006    -1123.7753479478006     
   3.8666666666666613E-006    -1919.2511099839505     
   4.0666666666666661E-006    -2704.9275610232389     
   4.2666666666666642E-006    -3473.2238128417907     
   4.4666666666666623E-006    -4216.1872773920031     
   4.6666666666666604E-006    -4925.5275639988340     
   4.8666666666666652E-006    -5592.8146577991174     
   5.0666666666666633E-006    -6209.8044807738625     
   5.2666666666666614E-006    -6768.8127020591292     
   5.4666666666666663E-006    -7263.0345889193659     
   5.6666666666666644E-006    -7686.7305846458548     
   5.8666666666666624E-006    -8035.2418538336269     
   6.0666666666666605E-006    -8304.8533546436902     
   6.2666666666666654E-006    -8492.5734653845575     
   6.4666666666666635E-006    -8595.9271308851221     
   6.6666666666666616E-006    -8612.8483769196846     
   6.8666666666666664E-006    -8541.7254967982299     
   7.0666666666666645E-006    -8381.5880837139739     
   7.2666666666666626E-006    -8132.3871430714098     
   7.4666666666666607E-006    -7795.2705962763284     
   7.6666666666666655E-006    -7372.7614120307917     
   7.8666666666666636E-006    -6868.7765272610686     
   8.0666666666666617E-006    -6288.4746178010246     
   8.2666666666666598E-006    -5637.9704464902425     
   8.4666666666666647E-006    -4924.0065299147145     
   8.6666666666666627E-006    -4153.6728602427338     
   8.8666666666666608E-006    -3334.2538813342658     
   9.0666666666666657E-006    -2473.2297350869057     
   9.2666666666666638E-006    -1578.4064081980505     
   9.4666666666666619E-006    -658.10309410253967     
   9.6666666666666599E-006     278.69759580624486     
   9.8666666666666648E-006     1222.3187131627919     
   1.0066666666666663E-005     2162.5193471583198     
   1.0266666666666661E-005     3088.7746594722421     
   1.0466666666666666E-005     3990.6453892352174     
   1.0666666666666664E-005     4858.1422815782871     
   1.0866666666666662E-005     5681.9997833364641     
   1.1066666666666660E-005     6453.8000185125802     
   1.1266666666666665E-005     7165.9394046535472     
   1.1466666666666663E-005     7811.4831733402070     
   1.1666666666666661E-005     8383.9930985119645     
   1.1866666666666666E-005     8877.4102091427303     
   1.2066666666666664E-005     9285.9819874229579     
   1.2266666666666662E-005     9604.5590201849154     
   1.2466666666666660E-005     9828.8819881496111     
   1.2666666666666665E-005     9955.8567749524300     
   1.2866666666666663E-005     9983.7598125832465     
   1.3066666666666661E-005     9912.2903006659726     
   1.3266666666666666E-005     9742.4783098487442     
   1.3466666666666664E-005     9476.4776994372023     
   1.3666666666666662E-005     9117.3207395806821     
   1.3866666666666660E-005     8668.7231223384879     
   1.4066666666666665E-005     8134.9915373661315     
   1.4266666666666663E-005     7521.0632128310517     
   1.4466666666666661E-005     6832.6427701386820     
   1.4666666666666666E-005     6076.3708184618808     
   1.4866666666666664E-005     5259.9435830262128     
   1.5066666666666662E-005     4392.1147231137784     
   1.5266666666666661E-005     3482.5456566534285     
   1.5466666666666665E-005     2541.5257110435350     
   1.5666666666666663E-005     1579.6207731465386     
   1.5866666666666662E-005     607.33341676237455     
   1.6066666666666660E-005    -365.14988942829166     
   1.6266666666666665E-005    -1328.0784405851609     
   1.6466666666666663E-005    -2272.1232306166889     
   1.6666666666666661E-005    -3188.2776499597994     
   1.6866666666666666E-005    -4067.7386374643220     
   1.7066666666666664E-005    -4901.8541302005615     
   1.7266666666666662E-005    -5682.1727424094652     
   1.7466666666666660E-005    -6400.6187552168203     
   1.7666666666666665E-005    -7049.7466262556027     
   1.7866666666666663E-005    -7623.0168455016837     
   1.8066666666666661E-005    -8115.0069012035456     
   1.8266666666666666E-005    -8521.5194908790399     
   1.8466666666666664E-005    -8839.5517779427100     
   1.8666666666666662E-005    -9067.1561698893856     
   1.8866666666666660E-005    -9203.2549191320759     
   1.9066666666666665E-005    -9247.4780153301508     
   1.9266666666666663E-005    -9200.0826498092920     
   1.9466666666666661E-005    -9061.9822328503124     
   1.9666666666666666E-005    -8834.8696538504064     
   1.9866666666666664E-005    -8521.3872537848401     
   2.0066666666666662E-005    -8125.2624962472564     
   2.0266666666666660E-005    -7651.3626932007764     
   2.0466666666666665E-005    -7105.6217336852478     
   2.0666666666666663E-005    -6494.8514560812455     
   2.0866666666666661E-005    -5826.4800888905793     
   2.1066666666666659E-005    -5108.2865446007891     
   2.1266666666666664E-005    -4348.1949568438249     
   2.1466666666666662E-005    -3554.1690678268960     
   2.1666666666666660E-005    -2734.2162286112703     
   2.1866666666666665E-005    -1896.4631223032725     
   2.2066666666666663E-005    -1049.2440058500883     
   2.2266666666666661E-005    -201.13978860132693     
   2.2466666666666659E-005     639.07782699623010     
   2.2666666666666664E-005     1462.6070629759442     
   2.2866666666666662E-005     2260.8518498254434     
   2.3066666666666660E-005     3025.6781292585842     
   2.3266666666666665E-005     3749.6249595431223     
   2.3466666666666663E-005     4426.0216279079641     
   2.3666666666666661E-005     5048.9917128192201     
   2.3866666666666660E-005     5613.3686889216424     
   2.4066666666666664E-005     6114.5647700712088     
   2.4266666666666662E-005     6548.4687720701431     
   2.4466666666666661E-005     6911.4119864718177     
   2.4666666666666665E-005     7200.2342219580569     
   2.4866666666666663E-005     7412.4326661412879     
   2.5066666666666662E-005     7546.3438514675909     
   2.5266666666666660E-005     7601.3061247248606     
   2.5466666666666665E-005     7577.7347589329065     
   2.5666666666666663E-005     7477.0922772896465     
   2.5866666666666661E-005     7301.7542239133973     
   2.6066666666666666E-005     7054.8122116772502     
   2.6266666666666664E-005     6739.8789530853173     
   2.6466666666666662E-005     6360.9457520290853     
   2.6666666666666660E-005     5922.3355523676646     
   2.6866666666666665E-005     5428.7447944942051     
   2.7066666666666663E-005     4885.3436256056902     
   2.7266666666666661E-005     4297.8759348647436     
   2.7466666666666666E-005     3672.6989831051560     
   2.7666666666666664E-005     3016.7281244246401     
   2.7866666666666662E-005     2337.2793757423965     
   2.8066666666666667E-005     1641.8426533188815     
   2.8266666666666658E-005     937.84220192365979     
   2.8466666666666663E-005     232.44655666076829     
   2.8666666666666668E-005    -467.52770149522280     
   2.8866666666666659E-005    -1155.6052989590453     
   2.9066666666666664E-005    -1825.5629849430470     
   2.9266666666666669E-005    -2471.3102636526719     
   2.9466666666666660E-005    -3086.8094343505318     
   2.9666666666666665E-005    -3666.0793533205460     
   2.9866666666666656E-005    -4203.3043417318240     
   3.0066666666666661E-005    -4693.0276433115796     
   3.0266666666666666E-005    -5130.3782980221513     
   3.0466666666666657E-005    -5511.2653829979408     
   3.0666666666666662E-005    -5832.4866029877212     
   3.0866666666666667E-005    -6091.7203570203601     
   3.1066666666666658E-005    -6287.4162350058768     
   3.1266666666666663E-005    -6418.6314974708030     
   3.1466666666666668E-005    -6484.8722028483326     
   3.1666666666666659E-005    -6486.0064695271149     
   3.1866666666666664E-005    -6422.2750376103486     
   3.2066666666666656E-005    -6294.3998399585707     
   3.2266666666666660E-005    -6103.7449550886868     
   3.2466666666666665E-005    -5852.4679393723864     
   3.2666666666666657E-005    -5543.5955535875264     
   3.2866666666666661E-005    -5180.9874940626232     
   3.3066666666666666E-005    -4769.1834012474319     
   3.3266666666666658E-005    -4313.1733931618674     
   3.3466666666666662E-005    -3818.1569732675798     
   3.3666666666666667E-005    -3289.3584577225602     
   3.3866666666666659E-005    -2731.9501114655986     
   3.4066666666666664E-005    -2151.0949931035930     
   3.4266666666666668E-005    -1552.0766511596876     
   3.4466666666666660E-005    -940.45458189334499     
   3.4666666666666665E-005    -322.17491498922345     
   3.4866666666666656E-005     296.42484846805110     
   3.5066666666666661E-005     908.73537946507258     
   3.5266666666666666E-005     1508.0985677685680     
   3.5466666666666657E-005     2088.0770532050146     
   3.5666666666666662E-005     2642.6928452972957     
   3.5866666666666667E-005     3166.5712131148762     
   3.6066666666666658E-005     3654.9588766670431     
   3.6266666666666663E-005     4103.6265361910628     
   3.6466666666666668E-005     4508.7060939666089     
   3.6666666666666659E-005     4866.5397367877140     
   3.6866666666666664E-005     5173.6074601264118     
   3.7066666666666669E-005     5426.5739025553094     
   3.7266666666666660E-005     5622.4534227780723     
   3.7466666666666665E-005     5758.8462125767473     
   3.7666666666666656E-005     5834.1676383352788     
   3.7866666666666661E-005     5847.8032025127523     
   3.8066666666666666E-005     5800.1301818400216     
   3.8266666666666657E-005     5692.4004392042525     
   3.8466666666666662E-005     5526.5252066352878     
   3.8666666666666667E-005     5304.8315287020214     
   3.8866666666666658E-005     5029.8700426851738     
   3.9066666666666663E-005     4704.3401073029590     
   3.9266666666666668E-005     4331.1475537993083     
   3.9466666666666659E-005     3913.5702995696947     
   3.9666666666666664E-005     3455.4655946922403     
   3.9866666666666655E-005     2961.4338504216839     
   4.0066666666666660E-005     2436.8680801278833     
   4.0266666666666665E-005     1887.8588950625508     
   4.0466666666666656E-005     1320.9669688854297     
   4.0666666666666661E-005     742.92420245885512     
   4.0866666666666666E-005     160.34600046011241     
   4.1066666666666657E-005    -420.46528893070791     
   4.1266666666666662E-005    -993.58385864573347     
   4.1466666666666667E-005    -1553.3883893669183     
   4.1666666666666658E-005    -2094.4080499374231     
   4.1866666666666663E-005    -2611.1611144839153     
   4.2066666666666668E-005    -3098.0689712010108     
   4.2266666666666660E-005    -3549.5005327979179     
   4.2466666666666664E-005    -3959.9527681581776     
   4.2666666666666656E-005    -4324.3262779574370     
   4.2866666666666661E-005    -4638.2220230323846     
   4.3066666666666665E-005    -4898.1681135438175     
   4.3266666666666657E-005    -5101.7144927078152     
   4.3466666666666662E-005    -5247.3730433754808     
   4.3666666666666666E-005    -5334.4319644653369     
   4.3866666666666658E-005    -5362.7149797869733     
   4.4066666666666663E-005    -5332.3718419857314     
   4.4266666666666667E-005    -5243.7760352191499     
   4.4466666666666659E-005    -5097.5670760273151     
   4.4666666666666664E-005    -4894.8173916049645     
   4.4866666666666655E-005    -4637.2635597771878     
   4.5066666666666660E-005    -4327.5177908716569     
   4.5266666666666665E-005    -3969.1769006457325     
   4.5466666666666656E-005    -3566.7798440607071     
   4.5666666666666661E-005    -3125.6170039749977     
   4.5866666666666666E-005    -2651.4422417022611     
   4.6066666666666657E-005    -2150.1703218505586     
   4.6266666666666662E-005    -1627.6446178726833     
   4.6466666666666667E-005    -1089.5354458048155     
   4.6666666666666658E-005    -541.37930607221233     
   4.6866666666666663E-005     11.276384591025050     
   4.7066666666666668E-005     562.70074976177307     
   4.7266666666666659E-005     1106.8622580271672     
   4.7466666666666664E-005     1637.4353965027001     
   4.7666666666666655E-005     2147.9501913910617     
   4.7866666666666660E-005     2632.0593066009214     
   4.8066666666666665E-005     3083.8533964839671     
   4.8266666666666656E-005     3498.1324320683243     
   4.8466666666666661E-005     3870.5658284346073     
   4.8666666666666666E-005     4197.6960798013952     
   4.8866666666666657E-005     4476.8062216723229     
   4.9066666666666662E-005     4705.7081079490081     
   4.9266666666666667E-005     4882.5350805450944     
   4.9466666666666658E-005     5005.6203869502870     
   4.9666666666666663E-005     5073.5106806079148     
   4.9866666666666655E-005     5085.1088627793542     
   5.0066666666666659E-005     5039.9039890374988     
   5.0266666666666664E-005     4938.2028768607752     
   5.0466666666666656E-005     4781.2877404862675     
   5.0666666666666660E-005     4571.4342177796980     
   5.0866666666666665E-005     4311.7879507975067     
   5.1066666666666657E-005     4006.1247949322351     
   5.1266666666666661E-005     3658.5791812869784     
   5.1466666666666666E-005     3273.4140820538009     
   5.1666666666666658E-005     2854.9036777924121     
   5.1866666666666662E-005     2407.3501785991921     
   5.2066666666666667E-005     1935.2112304253105     
   5.2266666666666659E-005     1443.2735252283935     
   5.2466666666666664E-005     936.79278860008708     
   5.2666666666666655E-005     421.53012883688541     
   5.2866666666666660E-005    -96.347969472759260     
   5.3066666666666665E-005    -610.49267395360312     
   5.3266666666666656E-005    -1114.6629553428133     
   5.3466666666666661E-005    -1603.0032874868684     
   5.3666666666666666E-005    -2070.2335664976781     
   5.3866666666666657E-005    -2511.7088952048080     
   5.4066666666666662E-005    -2923.3467615021509     
   5.4266666666666667E-005    -3301.4691240270008     
   5.4466666666666658E-005    -3642.6279442169844     
   5.4666666666666663E-005    -3943.4940263676076     
   5.4866666666666668E-005    -4200.8550162158081     
   5.5066666666666659E-005    -4411.7371382110232     
   5.5266666666666664E-005    -4573.6122140715015     
   5.5466666666666655E-005    -4684.6282230622082     
   5.5666666666666660E-005    -4743.7820012019192     
   5.5866666666666665E-005    -4750.9846795990034     
   5.6066666666666656E-005    -4706.9959304650001     
   5.6266666666666661E-005    -4613.2499923830073     
   5.6466666666666666E-005    -4471.6352081842979     
   5.6666666666666657E-005    -4284.2997191884397     
   5.6866666666666662E-005    -4053.5433674077021     
   5.7066666666666667E-005    -3781.8225651865605     
   5.7266666666666658E-005    -3471.8574138728854     
   5.7466666666666663E-005    -3126.7902764116689     
   5.7666666666666654E-005    -2750.3236298012416     
   5.7866666666666659E-005    -2346.7768267237448     
   5.8066666666666664E-005    -1921.0257648868696     
   5.8266666666666655E-005    -1478.3308176767437     
   5.8466666666666660E-005    -1024.0969361847192     
   5.8666666666666665E-005    -563.63094395109511     
   5.8866666666666656E-005    -101.96211288860098     
   5.9066666666666661E-005     356.23164733521719     
   5.9266666666666666E-005     806.58493722523087     
   5.9466666666666657E-005     1244.9306089729193     
   5.9666666666666662E-005     1667.1649875058968     
   5.9866666666666667E-005     2069.1582652943462     
   6.0066666666666659E-005     2446.7563463464817     
   6.0266666666666663E-005     2795.8836326749824     
   6.0466666666666655E-005     3112.7253713796385     
   6.0666666666666660E-005     3393.9298847416931     
   6.0866666666666664E-005     3636.7730944578757     
   6.1066666666666656E-005     3839.2351102657831     
   6.1266666666666661E-005     3999.9679111012902     
   6.1466666666666665E-005     4118.1744637646243     
   6.1666666666666657E-005     4193.4483628887383     
   6.1866666666666662E-005     4225.6303365877284     
   6.2066666666666666E-005     4214.7340210135799     
   6.2266666666666658E-005     4160.9693140002400     
   6.2466666666666663E-005     4064.8445459679497     
   6.2666666666666668E-005     3927.3132830340073     
   6.2866666666666659E-005     3749.9023712302032     
   6.3066666666666664E-005     3534.7700230116052     
   6.3266666666666655E-005     3284.6691691212363     
   6.3466666666666660E-005     3002.8147044812199     
   6.3666666666666665E-005     2692.6973005289437     
   6.3866666666666656E-005     2357.8949482953776     
   6.4066666666666661E-005     2001.9388726686429     
   6.4266666666666666E-005     1628.2671304139137     
   6.4466666666666657E-005     1240.2683572001567     
   6.4666666666666662E-005     841.38612177547679     
   6.4866666666666667E-005     435.23374568851068     
   6.5066666666666658E-005     25.665425082310890     
   6.5266666666666663E-005    -383.23173176034999     
   6.5466666666666654E-005    -787.23280401571662     
   6.5666666666666659E-005    -1182.1332014487773     
   6.5866666666666664E-005    -1563.9231202568089     
   6.6066666666666655E-005    -1928.9252265960745     
   6.6266666666666660E-005    -2273.8598808059101     
   6.6466666666666665E-005    -2595.8187819334912     
   6.6666666666666656E-005    -2892.1751960424294     
   6.6866666666666661E-005    -3160.4665781351496     
   6.7066666666666666E-005    -3398.3065204319946     
   6.7266666666666657E-005    -3603.3618073779103     
   6.7466666666666662E-005    -3773.4145235604137     
   6.7666666666666667E-005    -3906.4911581799875     
   6.7866666666666658E-005    -4001.0188395161440     
   6.8066666666666663E-005    -4055.9582246396058     
   6.8266666666666655E-005    -4070.8696654641731     
   6.8466666666666659E-005    -4045.8861145066576     
   6.8666666666666664E-005    -3981.6129626504371     
   6.8866666666666656E-005    -3878.9819081373798     
   6.9066666666666660E-005    -3739.1149694038440     
   6.9266666666666665E-005    -3563.2439446894582     
   6.9466666666666657E-005    -3352.7113180691713     
   6.9666666666666661E-005    -3109.0455806177301     
   6.9866666666666666E-005    -2834.0836126722502     
   7.0066666666666658E-005    -2530.0882301867910     
   7.0266666666666662E-005    -2199.8137728644147     
   7.0466666666666654E-005    -1846.4905503931354     
   7.0666666666666659E-005    -1473.7281309644295     
   7.0866666666666664E-005    -1085.3627488462184     
   7.1066666666666655E-005    -685.29705208049040     
   7.1266666666666660E-005    -277.37979547827496     
   7.1466666666666665E-005     134.64225628406160     
   7.1666666666666656E-005     547.09365215421212     
   7.1866666666666661E-005     956.28511053612874     
   7.2066666666666666E-005     1358.4181263087737     
   7.2266666666666657E-005     1749.5264844672940     
   7.2466666666666662E-005     2125.4936552781783     
   7.2666666666666667E-005     2482.1511306254802     
   7.2866666666666658E-005     2815.4411409982417     
   7.3066666666666663E-005     3121.5984762382595     
   7.3266666666666654E-005     3397.2996671449141     
   7.3466666666666659E-005     3639.7411754460700     
   7.3666666666666664E-005     3846.6282793204214     
   7.3866666666666655E-005     4016.0900305081150     
   7.4066666666666660E-005     4146.5612103984586     
   7.4266666666666665E-005     4236.6780298454132     
   7.4466666666666656E-005     4285.2391759374650     
   7.4666666666666661E-005     4291.2456410943496     
   7.4866666666666666E-005     4254.0170161428423     
   7.5066666666666657E-005     4173.3450216155652     
   7.5266666666666662E-005     4049.6308764513942     
   7.5466666666666653E-005     3883.9645576676207     