  -3.3333333333333335E-005     0.0000000000000000     
  -3.3133333333333337E-005     0.0000000000000000     
  -3.2933333333333332E-005     0.0000000000000000     
  -3.2733333333333334E-005     0.0000000000000000     
  -3.2533333333333336E-005     0.0000000000000000     
  -3.2333333333333338E-005     0.0000000000000000     
  -3.2133333333333333E-005     0.0000000000000000     
  -3.1933333333333335E-005     0.0000000000000000     
  -3.1733333333333337E-005     0.0000000000000000     
  -3.1533333333333332E-005     0.0000000000000000     
  -3.1333333333333334E-005     0.0000000000000000     
  -3.1133333333333336E-005     0.0000000000000000     
  -3.0933333333333338E-005     0.0000000000000000     
  -3.0733333333333333E-005     0.0000000000000000     
  -3.0533333333333335E-005     0.0000000000000000     
  -3.0333333333333337E-005     0.0000000000000000     
  -3.0133333333333335E-005     0.0000000000000000     
  -2.9933333333333334E-005     0.0000000000000000     
  -2.9733333333333336E-005     0.0000000000000000     
  -2.9533333333333334E-005     0.0000000000000000     
  -2.9333333333333336E-005     0.0000000000000000     
  -2.9133333333333334E-005     0.0000000000000000     
  -2.8933333333333336E-005     0.0000000000000000     
  -2.8733333333333335E-005     0.0000000000000000     
  -2.8533333333333333E-005     0.0000000000000000     
  -2.8333333333333335E-005     0.0000000000000000     
  -2.8133333333333337E-005     0.0000000000000000     
  -2.7933333333333336E-005     0.0000000000000000     
  -2.7733333333333334E-005     0.0000000000000000     
  -2.7533333333333336E-005     0.0000000000000000     
  -2.7333333333333335E-005     0.0000000000000000     
  -2.7133333333333333E-005     0.0000000000000000     
  -2.6933333333333335E-005     0.0000000000000000     
  -2.6733333333333337E-005     0.0000000000000000     
  -2.6533333333333336E-005     0.0000000000000000     
  -2.6333333333333334E-005     0.0000000000000000     
  -2.6133333333333336E-005     0.0000000000000000     
  -2.5933333333333335E-005     0.0000000000000000     
  -2.5733333333333333E-005     0.0000000000000000     
  -2.5533333333333335E-005     0.0000000000000000     
  -2.5333333333333337E-005     0.0000000000000000     
  -2.5133333333333336E-005     0.0000000000000000     
  -2.4933333333333334E-005     0.0000000000000000     
  -2.4733333333333336E-005     0.0000000000000000     
  -2.4533333333333334E-005     0.0000000000000000     
  -2.4333333333333333E-005     0.0000000000000000     
  -2.4133333333333335E-005     0.0000000000000000     
  -2.3933333333333337E-005     0.0000000000000000     
  -2.3733333333333335E-005     0.0000000000000000     
  -2.3533333333333334E-005     0.0000000000000000     
  -2.3333333333333336E-005     0.0000000000000000     
  -2.3133333333333338E-005     0.0000000000000000     
  -2.2933333333333336E-005     0.0000000000000000     
  -2.2733333333333335E-005     0.0000000000000000     
  -2.2533333333333337E-005     0.0000000000000000     
  -2.2333333333333335E-005     0.0000000000000000     
  -2.2133333333333334E-005     0.0000000000000000     
  -2.1933333333333336E-005     0.0000000000000000     
  -2.1733333333333338E-005     0.0000000000000000     
  -2.1533333333333336E-005     0.0000000000000000     
  -2.1333333333333335E-005     0.0000000000000000     
  -2.1133333333333337E-005     0.0000000000000000     
  -2.0933333333333335E-005     0.0000000000000000     
  -2.0733333333333334E-005     0.0000000000000000     
  -2.0533333333333336E-005     0.0000000000000000     
  -2.0333333333333337E-005     0.0000000000000000     
  -2.0133333333333336E-005     0.0000000000000000     
  -1.9933333333333334E-005     0.0000000000000000     
  -1.9733333333333336E-005     0.0000000000000000     
  -1.9533333333333335E-005     0.0000000000000000     
  -1.9333333333333333E-005     0.0000000000000000     
  -1.9133333333333335E-005     0.0000000000000000     
  -1.8933333333333337E-005     0.0000000000000000     
  -1.8733333333333336E-005     0.0000000000000000     
  -1.8533333333333334E-005     0.0000000000000000     
  -1.8333333333333336E-005     0.0000000000000000     
  -1.8133333333333335E-005     0.0000000000000000     
  -1.7933333333333337E-005     0.0000000000000000     
  -1.7733333333333335E-005     0.0000000000000000     
  -1.7533333333333337E-005     0.0000000000000000     
  -1.7333333333333336E-005     0.0000000000000000     
  -1.7133333333333334E-005     0.0000000000000000     
  -1.6933333333333336E-005     0.0000000000000000     
  -1.6733333333333335E-005     0.0000000000000000     
  -1.6533333333333337E-005     0.0000000000000000     
  -1.6333333333333335E-005     0.0000000000000000     
  -1.6133333333333337E-005     0.0000000000000000     
  -1.5933333333333336E-005    -2.3144579424225187E-041
  -1.5733333333333334E-005    -7.0274529751105225E-041
  -1.5533333333333336E-005    -1.3719702318515630E-040
  -1.5333333333333334E-005    -2.0095944297558181E-040
  -1.5133333333333336E-005    -8.0844003143937096E-041
  -1.4933333333333335E-005     2.1899684312029846E-040
  -1.4733333333333337E-005     6.8262997757385696E-040
  -1.4533333333333335E-005     1.7123570872628746E-039
  -1.4333333333333337E-005     3.4324173232913696E-039
  -1.4133333333333336E-005     6.3368705590470471E-039
  -1.3933333333333334E-005     1.0754118815387041E-038
  -1.3733333333333336E-005     1.3212959749001781E-038
  -1.3533333333333335E-005     8.1045960249098882E-039
  -1.3333333333333337E-005    -1.3634587712334214E-038
  -1.3133333333333335E-005    -4.2343777842925216E-038
  -1.2933333333333337E-005    -1.0163303745387979E-037
  -1.2733333333333336E-005    -1.9269765569655634E-037
  -1.2533333333333338E-005    -3.0291202563306225E-037
  -1.2333333333333336E-005    -3.9604327001808486E-037
  -1.2133333333333335E-005    -3.9261101370939385E-037
  -1.1933333333333337E-005    -1.6196002192980509E-037
  -1.1733333333333335E-005     4.6915981051212020E-037
  -1.1533333333333337E-005     1.6726905274431676E-036
  -1.1333333333333336E-005     3.5213349874451182E-036
  -1.1133333333333337E-005     5.8217723604296163E-036
  -1.0933333333333336E-005     7.8929767857343117E-036
  -1.0733333333333334E-005     8.3374098663682243E-036
  -1.0533333333333336E-005     4.9203889767901662E-036
  -1.0333333333333335E-005    -5.2552754167171361E-036
  -1.0133333333333337E-005    -2.5031488025996413E-035
  -9.9333333333333354E-006    -5.5686893137159347E-035
  -9.7333333333333373E-006    -9.4515371539301896E-035
  -9.5333333333333358E-006    -1.3168580777083195E-034
  -9.3333333333333343E-006    -1.4713814516683278E-034
  -9.1333333333333362E-006    -1.0905189538830040E-034
  -8.9333333333333348E-006     2.3718866485424681E-035
  -8.7333333333333367E-006     2.9224682917754383E-034
  -8.5333333333333352E-006     7.1834981189004833E-034
  -8.3333333333333371E-006     1.2744677379070870E-033
  -8.1333333333333356E-006     1.8452501050591272E-033
  -7.9333333333333376E-006     2.1898542758560330E-033
  -7.7333333333333361E-006     1.9223870269918066E-033
  -7.5333333333333346E-006     5.3675068399761199E-034
  -7.3333333333333365E-006    -2.4921522642615128E-033
  -7.1333333333333351E-006    -7.5016438768843392E-033
  -6.9333333333333370E-006    -1.4317375815161758E-032
  -6.7333333333333355E-006    -2.1839424647513466E-032
  -6.5333333333333374E-006    -2.7627584465629973E-032
  -6.3333333333333359E-006    -2.7655756354202979E-032
  -6.1333333333333379E-006    -1.6487937361637863E-032
  -5.9333333333333364E-006     1.1819287674092798E-032
  -5.7333333333333349E-006     6.1806811295771500E-032
  -5.5333333333333368E-006     1.3357030001752333E-031
  -5.3333333333333354E-006     2.1879598830109918E-031
  -5.1333333333333373E-006     2.9662220165382049E-031
  -4.9333333333333358E-006     3.3076660780571369E-031
  -4.7333333333333377E-006     2.7007120831093718E-031
  -4.5333333333333362E-006     5.5098729898831223E-032
  -4.3333333333333348E-006    -3.6670680027110334E-031
  -4.1333333333333367E-006    -1.0159255172263560E-030
  -3.9333333333333352E-006    -1.8473074624974002E-030
  -3.7333333333333371E-006    -2.7124496086446272E-030
  -3.5333333333333356E-006    -3.3296742869862826E-030
  -3.3333333333333376E-006    -3.2774889409940908E-030
  -3.1333333333333361E-006    -2.0322257758845730E-030
  -2.9333333333333346E-006     9.2933109235845906E-031
  -2.7333333333333365E-006     5.9484509856914817E-030
  -2.5333333333333384E-006     1.2926993099784074E-029
  -2.3333333333333336E-006     2.1025053965426561E-029
  -2.1333333333333355E-006     2.8382655399038697E-029
  -1.9333333333333374E-006     3.1976638041881678E-029
  -1.7333333333333393E-006     2.7758728393976988E-029
  -1.5333333333333345E-006     1.1232385769843225E-029
  -1.3333333333333364E-006    -2.1406666313770446E-029
  -1.1333333333333383E-006    -7.1536607744184362E-029
  -9.3333333333333343E-007    -1.3592378518298080E-028
  -7.3333333333333535E-007    -2.0446864806275368E-028
  -5.3333333333333726E-007    -2.5855130391865835E-028
  -3.3333333333333918E-007    -2.7090800735231771E-028
  -1.3333333333333432E-007    -2.0811829298060032E-028
   6.6666666666663770E-008    -3.6692235312254710E-029
   2.6666666666666185E-007     2.6670681810700625E-028
   4.6666666666666672E-007     7.0128321743180364E-028
   6.6666666666666480E-007     1.2261362080673283E-027
   8.6666666666666289E-007     1.7457958924084291E-027
   1.0666666666666610E-006     2.1025617873152393E-027
   1.2666666666666658E-006     2.0822804197074659E-027
   1.4666666666666639E-006     1.4404177079692912E-027
   1.6666666666666620E-006    -4.6361546198537374E-029
   1.8666666666666669E-006    -2.5020782445259496E-027
   2.0666666666666649E-006    -5.8527710081743452E-027
   2.2666666666666630E-006    -9.7227778899815746E-027
   2.4666666666666611E-006    -1.3352315373545882E-026
   2.6666666666666660E-006    -1.5572497601551992E-026
   2.8666666666666641E-006    -1.4879395115813833E-026
   3.0666666666666622E-006    -9.6457751996700766E-027
   3.2666666666666602E-006     1.5061878388338918E-027
   3.4666666666666651E-006     1.9178519551862678E-026
   3.6666666666666632E-006     4.2570802195479407E-026
   3.8666666666666613E-006     6.8864387581666825E-026
   4.0666666666666661E-006     9.2788970040332433E-026
   4.2666666666666642E-006     1.0659110349520965E-025
   4.4666666666666623E-006     1.0064100035044312E-025
   4.6666666666666604E-006     6.4877095390972577E-026
   4.8666666666666652E-006    -8.8207037790807447E-027
   5.0666666666666633E-006    -1.2342994327453637E-025
   5.2666666666666614E-006    -2.7312530249264269E-025
   5.4666666666666663E-006    -4.3984610614358886E-025
   5.6666666666666644E-006    -5.9108566316536407E-025
   5.8666666666666624E-006    -6.8012194916378112E-025
   6.0666666666666605E-006    -6.4993376317222165E-025
   6.2666666666666654E-006    -4.4178516511972861E-025
   6.4666666666666635E-006    -8.8120840207066824E-027
   6.6666666666666616E-006     6.6611423030013506E-025
   6.8666666666666664E-006     1.5503919796002785E-024
   7.0666666666666645E-006     2.5433169931831012E-024
   7.2666666666666626E-006     3.4646031569483788E-024
   7.4666666666666607E-006     4.0560606976503411E-024
   7.6666666666666655E-006     4.0026850201202004E-024
   7.8666666666666636E-006     2.9779146565912759E-024
   8.0666666666666617E-006     7.1446439371448728E-025
   8.2666666666666598E-006    -2.9031618049869226E-024
   8.4666666666666647E-006    -7.7353193930476369E-024
   8.6666666666666627E-006    -1.3291601350129995E-023
   8.8666666666666608E-006    -1.8668745883346923E-023
   9.0666666666666657E-006    -2.2552398192476530E-023
   9.2666666666666638E-006    -2.3313071324512467E-023
   9.4666666666666619E-006    -1.9219610541206527E-023
   9.6666666666666599E-006    -8.7779766375989395E-024
   9.8666666666666648E-006     8.8211457855311831E-024
   1.0066666666666663E-005     3.3194268565253720E-023
   1.0266666666666661E-005     6.2280640979000229E-023
   1.0466666666666666E-005     9.1998781904648938E-023
   1.0666666666666664E-005     1.1618423280830231E-022
   1.0866666666666662E-005     1.2695112467994668E-022
   1.1066666666666660E-005     1.1559282969825686E-022
   1.1266666666666665E-005     7.4072561874225644E-023
   1.1466666666666663E-005    -2.9491365094102900E-024
   1.1666666666666661E-005    -1.1574054707152706E-022
   1.1866666666666666E-005    -2.5712869156238306E-022
   1.2066666666666664E-005    -4.1063488867662026E-022
   1.2266666666666662E-005    -5.4973215173274009E-022
   1.2466666666666660E-005    -6.3887563632443535E-022
   1.2666666666666665E-005    -6.3686787830246311E-022
   1.2866666666666663E-005    -5.0287993368965913E-022
   1.3066666666666661E-005    -2.0503590369970207E-022
   1.3266666666666666E-005     2.6910048066317021E-022
   1.3466666666666664E-005     9.0147235846910938E-022
   1.3666666666666662E-005     1.6339269547520452E-021
   1.3866666666666660E-005     2.3626478708221799E-021
   1.4066666666666665E-005     2.9394615973213361E-021
   1.4266666666666663E-005     3.1826671438946838E-021
   1.4466666666666661E-005     2.8992064823595480E-021
   1.4666666666666666E-005     1.9184731410103095E-021
   1.4866666666666664E-005     1.3581823496421478E-022
   1.5066666666666662E-005    -2.4389140945697906E-021
   1.5266666666666661E-005    -5.6354425919757977E-021
   1.5466666666666665E-005    -9.0898902609523334E-021
   1.5666666666666663E-005    -1.2236246065017802E-020
   1.5866666666666662E-005    -1.4334168902196369E-020
   1.6066666666666660E-005    -1.4542374070405500E-020
   1.6266666666666665E-005    -1.2041571424166079E-020
   1.6466666666666663E-005    -6.2027057016504124E-021
   1.6666666666666661E-005     3.2143565522640505E-021
   1.6866666666666666E-005     1.5858452434892719E-020
   1.7066666666666664E-005     3.0619009470693910E-020
   1.7266666666666662E-005     4.5538446309554176E-020
   1.7466666666666660E-005     5.7853499572691812E-020
   1.7666666666666665E-005     6.4207766704517222E-020
   1.7866666666666663E-005     6.1060579447597161E-020
   1.8066666666666661E-005     4.5288944677933844E-020
   1.8266666666666666E-005     1.4940760211859601E-020
   1.8466666666666664E-005    -2.9947687339861241E-020
   1.8666666666666662E-005    -8.6602254872864247E-020
   1.8866666666666660E-005    -1.4899801412457338E-019
   1.9066666666666665E-005    -2.0776904904549987E-019
   1.9266666666666663E-005    -2.5071495486440617E-019
   1.9466666666666661E-005    -2.6402800206740039E-019
   1.9666666666666666E-005    -2.3427287917455978E-019
   1.9866666666666664E-005    -1.5101895722585241E-019
   2.0066666666666662E-005    -9.8649403302121362E-021
   2.0266666666666660E-005     1.8457105429290611E-019
   2.0466666666666665E-005     4.1627012702905309E-019
   2.0666666666666663E-005     6.5670036909081220E-019
   2.0866666666666661E-005     8.6562853000479214E-019
   2.1066666666666659E-005     9.9437663465681259E-019
   2.1266666666666664E-005     9.9176520372306428E-019
   2.1466666666666662E-005     8.1256736786495086E-019
   2.1666666666666660E-005     4.2776787126528580E-019
   2.1866666666666665E-005    -1.6465590730515652E-019
   2.2066666666666663E-005    -9.3023859549123928E-019
   2.2266666666666661E-005    -1.7919957403355548E-018
   2.2466666666666659E-005    -2.6301093535046037E-018
   2.2666666666666664E-005    -3.2892753208537794E-018
   2.2866666666666662E-005    -3.5948699768226095E-018
   2.3066666666666660E-005    -3.3778576561941745E-018
   2.3266666666666665E-005    -2.5067180021739292E-018
   2.3466666666666663E-005    -9.2285120181292101E-019
   2.3666666666666661E-005     1.3258586669025868E-018
   2.3866666666666660E-005     4.0599542200601744E-018
   2.4066666666666664E-005     6.9589541330257907E-018
   2.4266666666666662E-005     9.5741065313197929E-018
   2.4466666666666661E-005     1.1367850135168335E-017
   2.4666666666666665E-005     1.1781058335769898E-017
   2.4866666666666663E-005     1.0324448589168136E-017
   2.5066666666666662E-005     6.6850647231483949E-018
   2.5266666666666660E-005     8.3337732563231630E-019
   2.5466666666666665E-005    -6.8879129714504567E-018
   2.5666666666666663E-005    -1.5714445006902115E-017
   2.5866666666666661E-005    -2.4470342478700281E-017
   2.6066666666666666E-005    -3.1653347361202711E-017
   2.6266666666666664E-005    -3.5601330006029390E-017
   2.6466666666666662E-005    -3.4733844749038704E-017
   2.6666666666666660E-005    -2.7847437758629198E-017
   2.6866666666666665E-005    -1.4427710568186189E-017
   2.7066666666666663E-005     5.0718965054235891E-018
   2.7266666666666661E-005     2.9042598489425919E-017
   2.7466666666666666E-005     5.4681837003721488E-017
   2.7666666666666664E-005     7.8150854155828301E-017
   2.7866666666666662E-005     9.4953442705719483E-017
   2.8066666666666667E-005     1.0052891024763182E-016
   2.8266666666666658E-005     9.1012632856736650E-017
   2.8466666666666663E-005     6.4076133403954286E-017
   2.8666666666666668E-005     1.9721475712844305E-017
   2.8866666666666659E-005    -3.9119364391386587E-017
   2.9066666666666664E-005    -1.0633432727917797E-016
   2.9266666666666669E-005    -1.7286232936649587E-016
   2.9466666666666660E-005    -2.2748744301748185E-016
   2.9666666666666665E-005    -2.5820102816166788E-016
   2.9866666666666656E-005    -2.5403860145265702E-016
   3.0066666666666661E-005    -2.0719259147810943E-016
   3.0266666666666666E-005    -1.1510615388306241E-016
   3.0466666666666657E-005     1.7817393945665645E-017
   3.0666666666666662E-005     1.7927594199254917E-016
   3.0866666666666667E-005     3.4924730732308216E-016
   3.1066666666666658E-005     5.0152516283411067E-016
   3.1266666666666663E-005     6.0667075734744033E-016
   3.1466666666666668E-005     6.3621265148908585E-016
   3.1666666666666659E-005     5.6767227859038504E-016
   3.1866666666666664E-005     3.8975011347376128E-016
   3.2066666666666656E-005     1.0682695942153575E-016
   3.2266666666666660E-005    -2.5814434799679018E-016
   3.2466666666666665E-005    -6.6322047606937360E-016
   3.2666666666666657E-005    -1.0501582098770499E-015
   3.2866666666666661E-005    -1.3504678630560624E-015
   3.3066666666666666E-005    -1.4945694692258930E-015
   3.3266666666666658E-005    -1.4231980774830256E-015
   3.3466666666666662E-005    -1.0996420347343569E-015
   3.3666666666666667E-005    -5.2093701179304010E-016
   3.3866666666666659E-005     2.7409766149504513E-016
   3.4066666666666664E-005     1.2020286781742836E-015
   3.4266666666666668E-005     2.1387946173975153E-015
   3.4466666666666660E-005     2.9313341591011256E-015
   3.4666666666666665E-005     3.4165706995733470E-015
   3.4866666666666656E-005     3.4461763565068618E-015
   3.5066666666666661E-005     2.9142457680373641E-015
   3.5266666666666666E-005     1.7839124646874862E-015
   3.5466666666666657E-005     1.0828510612954165E-016
   3.5666666666666662E-005    -1.9589363800875447E-015
   3.5866666666666667E-005    -4.1670677013514802E-015
   3.6066666666666658E-005    -6.1886262637757475E-015
   3.6266666666666663E-005    -7.6562113047037500E-015
   3.6466666666666668E-005    -8.2134861990409952E-015
   3.6666666666666659E-005    -7.5748401349652331E-015
   3.6866666666666664E-005    -5.5858160343889874E-015
   3.7066666666666669E-005    -2.2747174233896995E-015
   3.7266666666666660E-005     2.1146598643384797E-015
   3.7466666666666665E-005     7.1181085936715546E-015
   3.7666666666666656E-005     1.2080112768048277E-014
   3.7866666666666661E-005     1.6218859044606938E-014
   3.8066666666666666E-005     1.8723741395856716E-014
   3.8266666666666657E-005     1.8876030721904770E-014
   3.8466666666666662E-005     1.6178085969777165E-014
   3.8666666666666667E-005     1.0472386908879098E-014
   3.8866666666666658E-005     2.0299242534301483E-015
   3.9066666666666663E-005    -8.4113404238390743E-015
   3.9266666666666668E-005    -1.9672818503324248E-014
   3.9466666666666659E-005    -3.0233792606340529E-014
   3.9666666666666664E-005    -3.8399484626765044E-014
   3.9866666666666655E-005    -4.2524781643833658E-014
   4.0066666666666660E-005    -4.1268895205718163E-014
   4.0266666666666665E-005    -3.3847205886217594E-014
   4.0466666666666656E-005    -2.0241748342866653E-014
   4.0666666666666661E-005    -1.3316188172798446E-015
   4.0866666666666666E-005     2.1089102027821855E-014
   4.1066666666666657E-005     4.4426232141594944E-014
   4.1266666666666662E-005     6.5536539540846737E-014
   4.1466666666666667E-005     8.1098159851823327E-014
   4.1666666666666658E-005     8.8062883088508096E-014
   4.1866666666666663E-005     8.4135355688211763E-014
   4.2066666666666668E-005     6.8211920104560145E-014
   4.2266666666666660E-005     4.0708615020662969E-014
   4.2466666666666664E-005     3.7145929182836696E-015
   4.2666666666666656E-005    -3.9075229882824340E-014
   4.2866666666666661E-005    -8.2667941618537204E-014
   4.3066666666666665E-005    -1.2130700784702959E-013
   4.3266666666666657E-005    -1.4918397045549041E-013
   4.3466666666666662E-005    -1.6124594840192604E-013
   4.3666666666666666E-005    -1.5399268374420467E-013
   4.3866666666666658E-005    -1.2614597569426154E-013
   4.4066666666666663E-005    -7.9079269088854340E-014
   4.4266666666666667E-005    -1.6917491248571254E-014
   4.4466666666666659E-005     5.3744293522746880E-014
   4.4666666666666664E-005     1.2450316521853808E-013
   4.4866666666666655E-005     1.8613685842969420E-013
   4.5066666666666660E-005     2.2980764375891487E-013
   4.5266666666666665E-005     2.4832890861397075E-013
   4.5466666666666656E-005     2.3731553859198685E-013
   4.5666666666666661E-005     1.9603976219123101E-013
   4.5866666666666666E-005     1.2783877831933786E-013
   4.6066666666666657E-005     3.9973988088717185E-014
   4.6266666666666662E-005    -5.7088231531927529E-014
   4.6466666666666667E-005    -1.5091954172338167E-013
   4.6666666666666658E-005    -2.2876010804078503E-013
   4.6866666666666663E-005    -2.7932856639571237E-013
   4.7066666666666668E-005    -2.9456048497477994E-013
   4.7266666666666659E-005    -2.7101104673042381E-013
   4.7466666666666664E-005    -2.1068650142425031E-013
   4.7666666666666655E-005    -1.2113372049708889E-013
   4.7866666666666660E-005    -1.4714090291510992E-014
   4.8066666666666665E-005     9.2898053218545348E-014
   4.8266666666666656E-005     1.8483016634662161E-013
   4.8466666666666661E-005     2.4547680532572003E-013
   4.8666666666666666E-005     2.6297835817958964E-013
   4.8866666666666657E-005     2.3134702921330424E-013
   4.9066666666666662E-005     1.5190300901434442E-013
   4.9266666666666667E-005     3.3752840840986285E-014
   4.9466666666666658E-005    -1.0682990693406181E-013
   4.9666666666666663E-005    -2.4811656907736379E-013
   4.9866666666666655E-005    -3.6556728493747956E-013
   5.0066666666666659E-005    -4.3509621185167101E-013
   5.0266666666666664E-005    -4.3655476718886776E-013
   5.0466666666666656E-005    -3.5696562454894175E-013
   5.0666666666666660E-005    -1.9306183827325114E-013
   5.0866666666666665E-005     4.7238774153809186E-014
   5.1066666666666657E-005     3.4466421061748220E-013
   5.1266666666666661E-005     6.6979821101083297E-013
   5.1466666666666666E-005     9.8556175329374989E-013
   5.1666666666666658E-005     1.2507046271220424E-012
   5.1866666666666662E-005     1.4239148407416519E-012
   5.2066666666666667E-005     1.4681006155369061E-012
   5.2266666666666659E-005     1.3544122038726724E-012
   5.2466666666666664E-005     1.0656078377514572E-012
   5.2666666666666655E-005     5.9853241111571209E-013
   5.2866666666666660E-005    -3.4430604363689367E-014
   5.3066666666666665E-005    -8.0490886628621993E-013
   5.3266666666666656E-005    -1.6689809039790382E-012
   5.3466666666666661E-005    -2.5683588922416306E-012
   5.3666666666666666E-005    -3.4321851479497583E-012
   5.3866666666666657E-005    -4.1793983044770435E-012
   5.4066666666666662E-005    -4.7217920966303229E-012
   5.4266666666666667E-005    -4.9679588624371269E-012
   5.4466666666666658E-005    -4.8284800380480391E-012
   5.4666666666666663E-005    -4.2226931077013389E-012
   5.4866666666666668E-005    -3.0872726148949346E-012
   5.5066666666666659E-005    -1.3866094183876938E-012
   5.5266666666666664E-005     8.7540930148429544E-013
   5.5466666666666655E-005     3.6431321684302950E-012
   5.5666666666666660E-005     6.7977955476633802E-012
   5.5866666666666665E-005     1.0149063758206384E-011
   5.6066666666666656E-005     1.3431703542963344E-011
   5.6266666666666661E-005     1.6309767852348614E-011
   5.6466666666666666E-005     1.8390447295869923E-011
   5.6666666666666657E-005     1.9249038982183156E-011
   5.6866666666666662E-005     1.8465509972344161E-011
   5.7066666666666667E-005     1.5671690402943706E-011
   5.7266666666666658E-005     1.0606420680038265E-011
   5.7466666666666663E-005     3.1743493563541354E-012
   5.7666666666666654E-005    -6.4977771531596278E-012
   5.7866666666666659E-005    -1.8014541761640406E-011
   5.8066666666666664E-005    -3.0683078245202310E-011
   5.8266666666666655E-005    -4.3510018980473392E-011
   5.8466666666666660E-005    -5.5230949208231240E-011
   5.8666666666666665E-005    -6.4377128181331701E-011
   5.8866666666666656E-005    -6.9381014677508873E-011
   5.9066666666666661E-005    -6.8718224752822406E-011
   5.9266666666666666E-005    -6.1078920721240135E-011
   5.9466666666666657E-005    -4.5556824803978737E-011
   5.9666666666666662E-005    -2.1839397978117622E-011
   5.9866666666666667E-005     9.6205153175646229E-012
   6.0066666666666659E-005     4.7474560987827179E-011
   6.0266666666666663E-005     8.9412709210275320E-011
   6.0466666666666655E-005     1.3218244735835576E-010
   6.0666666666666660E-005     1.7170986621372587E-010
   6.0866666666666664E-005     2.0333243217561178E-010
   6.1066666666666656E-005     2.2214334655696283E-010
   6.1266666666666661E-005     2.2343613512481143E-010
   6.1466666666666665E-005     2.0322491094602496E-010
   6.1666666666666657E-005     1.5880343922994916E-010
   6.1866666666666662E-005     8.9293358414806878E-011
   6.2066666666666666E-005    -3.8765357110547041E-012
   6.2266666666666658E-005    -1.1662368537677669E-010
   6.2466666666666663E-005    -2.4206098720305301E-010
   6.2666666666666668E-005    -3.7059826633855956E-010
   6.2866666666666659E-005    -4.9033790592096817E-010
   6.3066666666666664E-005    -5.8778495485318874E-010
   6.3266666666666655E-005    -6.4886391363626376E-010
   6.3466666666666660E-005    -6.6020101129038356E-010
   6.3666666666666665E-005    -6.1059591219720648E-010
   6.3866666666666656E-005    -4.9256937050028201E-010
   6.4066666666666661E-005    -3.0384684947187668E-010
   6.4266666666666666E-005    -4.8613321076170201E-011
   6.4466666666666657E-005     2.6163329409906476E-010
   6.4666666666666662E-005     6.0779339217751805E-010
   6.4866666666666667E-005     9.6358128144145198E-010
   6.5066666666666658E-005     1.2967365475895882E-009
   6.5266666666666663E-005     1.5710600692825189E-009
   6.5466666666666654E-005     1.7492230230101740E-009
   6.5666666666666659E-005     1.7962100726344483E-009
   6.5866666666666664E-005     1.6831662357805305E-009
   6.6066666666666655E-005     1.3913371788547247E-009
   6.6266666666666660E-005     9.1572036949330929E-010
   6.6466666666666665E-005     2.6801551846836732E-010
   6.6666666666666656E-005    -5.2154414531578664E-010
   6.6866666666666661E-005    -1.4038563160701196E-009
   6.7066666666666666E-005    -2.3124017056243585E-009
   6.7266666666666657E-005    -3.1666395946117347E-009
   6.7466666666666662E-005    -3.8773415649331125E-009
   6.7666666666666667E-005    -4.3536600544555311E-009
   6.7866666666666658E-005    -4.5115221686273861E-009
   6.8066666666666663E-005    -4.2827430508959724E-009
   6.8266666666666655E-005    -3.6240891299293022E-009
   6.8466666666666659E-005    -2.5253996823588732E-009
   6.8666666666666664E-005    -1.0158367152756427E-009
   6.8866666666666656E-005     8.3263442049557413E-010
   6.9066666666666660E-005     2.9052807738319316E-009
   6.9266666666666665E-005     5.0486945427787791E-009
   6.9466666666666657E-005     7.0791471001541954E-009
   6.9666666666666661E-005     8.7950424257836802E-009
   6.9866666666666666E-005     9.9928850512020236E-009
   7.0066666666666658E-005     1.0485760796121967E-008
   7.0266666666666662E-005     1.0122945633554082E-008
   7.0466666666666654E-005     8.8089660899371895E-009
   7.0666666666666659E-005     6.5202417805871819E-009
   7.0866666666666664E-005     3.3174462976855726E-009
   7.1066666666666655E-005    -6.4816916431514920E-010
   7.1266666666666660E-005    -5.1358537943063051E-009
   7.1466666666666665E-005    -9.8247442663085464E-009
   7.1666666666666656E-005    -1.4331771919174894E-008
   7.1866666666666661E-005    -1.8237562095395696E-008
   7.2066666666666666E-005    -2.1118969107156059E-008
   7.2266666666666657E-005    -2.2586145336515908E-008
   7.2466666666666662E-005    -2.2321339120326719E-008
   7.2666666666666667E-005    -2.0116131504807475E-008
   7.2866666666666658E-005    -1.5903582943690299E-008
   7.3066666666666663E-005    -9.7817935895738531E-009
   7.3266666666666654E-005    -2.0257570319161490E-009
   7.3466666666666659E-005     6.9149214267378845E-009
   7.3666666666666664E-005     1.6433834742656528E-008
   7.3866666666666655E-005     2.5801345362206503E-008
   7.4066666666666660E-005     3.4212679714558732E-008
   7.4266666666666665E-005     4.0847965316199035E-008
   7.4466666666666656E-005     4.4940247604209605E-008
   7.4666666666666661E-005     4.5846435032432854E-008
   7.4866666666666666E-005     4.3115327727898525E-008
   7.5066666666666657E-005     3.6546565976654260E-008
   7.5266666666666662E-005     2.6234535273142377E-008
   7.5466666666666653E-005     1.2591965280175824E-008