  -3.3333333333333335E-005     0.0000000000000000     
  -3.3133333333333337E-005     0.0000000000000000     
  -3.2933333333333332E-005     0.0000000000000000     
  -3.2733333333333334E-005     0.0000000000000000     
  -3.2533333333333336E-005     0.0000000000000000     
  -3.2333333333333338E-005     0.0000000000000000     
  -3.2133333333333333E-005    -1.6131247375600686E-015
  -3.1933333333333335E-005    -1.6304555180845628E-014
  -3.1733333333333337E-005    -8.0938807410895444E-014
  -3.1533333333333332E-005    -2.4350188066421183E-013
  -3.1333333333333334E-005    -3.7746639401861978E-013
  -3.1133333333333336E-005     4.8858200350707572E-013
  -3.0933333333333338E-005     5.7729185014445897E-012
  -3.0733333333333333E-005     2.4126279864626306E-011
  -3.0533333333333335E-005     7.2678947019499498E-011
  -3.0333333333333337E-005     1.7795468355708281E-010
  -3.0133333333333335E-005     3.6896983923866206E-010
  -2.9933333333333334E-005     6.5582485038103094E-010
  -2.9733333333333336E-005     9.9115992399176350E-010
  -2.9533333333333334E-005     1.2248478996076969E-009
  -2.9333333333333336E-005     1.0833438545541823E-009
  -2.9133333333333334E-005     2.2326574028033786E-010
  -2.8933333333333336E-005    -1.5989024483871091E-009
  -2.8733333333333335E-005    -4.2597452349811013E-009
  -2.8533333333333333E-005    -7.0469425548679985E-009
  -2.8333333333333335E-005    -8.7751566756325887E-009
  -2.8133333333333337E-005    -8.6065776263089128E-009
  -2.7933333333333336E-005    -7.7868119075404313E-009
  -2.7733333333333334E-005    -1.1987610534672967E-008
  -2.7533333333333336E-005    -3.3075701538881645E-008
  -2.7333333333333335E-005    -8.8180443367234091E-008
  -2.7133333333333333E-005    -1.9350053281152469E-007
  -2.6933333333333335E-005    -3.5113688245019894E-007
  -2.6733333333333337E-005    -5.2995554050966172E-007
  -2.6533333333333336E-005    -6.4599344958531967E-007
  -2.6333333333333334E-005    -5.5304029833633773E-007
  -2.6133333333333336E-005    -5.7387602503701770E-008
  -2.5933333333333335E-005     1.0306949498393604E-006
  -2.5733333333333333E-005     2.8049246291470660E-006
  -2.5533333333333335E-005     5.1429868943402682E-006
  -2.5333333333333337E-005     7.5920949710523045E-006
  -2.5133333333333336E-005     9.3123339426320275E-006
  -2.4933333333333334E-005     9.1367873998736375E-006
  -2.4733333333333336E-005     5.7934881325666517E-006
  -2.4533333333333334E-005    -1.7049113347184174E-006
  -2.4333333333333333E-005    -1.3557957952105426E-005
  -2.4133333333333335E-005    -2.8681871902474704E-005
  -2.3933333333333337E-005    -4.4394258271779365E-005
  -2.3733333333333335E-005    -5.6462797842422726E-005
  -2.3533333333333334E-005    -5.9654206035387714E-005
  -2.3333333333333336E-005    -4.8810235210589390E-005
  -2.3133333333333338E-005    -2.0323289586016674E-005
  -2.2933333333333336E-005     2.6277651537238223E-005
  -2.2733333333333335E-005     8.7040518249222189E-005
  -2.2533333333333337E-005     1.5304399488308786E-004
  -2.2333333333333335E-005     2.1094581348629987E-004
  -2.2133333333333334E-005     2.4477448631104396E-004
  -2.1933333333333336E-005     2.3882753145703365E-004
  -2.1733333333333338E-005     1.8123595348712841E-004
  -2.1533333333333336E-005     6.7513988643629069E-005
  -2.1333333333333335E-005    -9.6696566091983521E-005
  -2.1133333333333337E-005    -2.9441577520196595E-004
  -2.0933333333333335E-005    -4.9814325345753831E-004
  -2.0733333333333334E-005    -6.7283893325353352E-004
  -2.0533333333333336E-005    -7.8078912003552172E-004
  -2.0333333333333337E-005    -7.8770241604846016E-004
  -2.0133333333333336E-005    -6.6911002519221983E-004
  -1.9933333333333334E-005    -4.1603145721453156E-004
  -1.9733333333333336E-005    -3.8919069761970680E-005
  -1.9533333333333335E-005     4.3090322140270309E-004
  -1.9333333333333333E-005     9.4277950539186023E-004
  -1.9133333333333335E-005     1.4313305351921440E-003
  -1.8933333333333337E-005     1.8238117355340363E-003
  -1.8733333333333336E-005     2.0494919950243551E-003
  -1.8533333333333334E-005     2.0499605005351680E-003
  -1.8333333333333336E-005     1.7889868772395675E-003
  -1.8133333333333335E-005     1.2604209491347315E-003
  -1.7933333333333337E-005     4.9268708640193856E-004
  -1.7733333333333335E-005    -4.5124104817524262E-004
  -1.7533333333333337E-005    -1.4789222764967640E-003
  -1.7333333333333336E-005    -2.4783117332735274E-003
  -1.7133333333333334E-005    -3.3312589615601728E-003
  -1.6933333333333336E-005    -3.9287026163118115E-003
  -1.6733333333333335E-005    -4.1851423015237896E-003
  -1.6533333333333337E-005    -4.0499406469856709E-003
  -1.6333333333333335E-005    -3.5135152126451346E-003
  -1.6133333333333337E-005    -2.6074504353550674E-003
  -1.5933333333333336E-005    -1.3987988456655800E-003
  -1.5733333333333334E-005     1.9950907446428029E-005
  -1.5533333333333336E-005     1.5428768731627256E-003
  -1.5333333333333334E-005     3.0619491086716832E-003
  -1.5133333333333336E-005     4.4754207224875601E-003
  -1.4933333333333335E-005     5.6920221942944292E-003
  -1.4733333333333337E-005     6.6310459079971023E-003
  -1.4533333333333335E-005     7.2197124775147566E-003
  -1.4333333333333337E-005     7.3901641822794670E-003
  -1.4133333333333336E-005     7.0786549450459688E-003
  -1.3933333333333334E-005     6.2290204839600257E-003
  -1.3733333333333336E-005     4.8013078507431741E-003
  -1.3533333333333335E-005     2.7848959938394000E-003
  -1.3333333333333337E-005     2.1390348402951302E-004
  -1.3133333333333335E-005    -2.8184709057403360E-003
  -1.2933333333333337E-005    -6.1504827095888379E-003
  -1.2733333333333336E-005    -9.5506983407613009E-003
  -1.2533333333333338E-005    -1.2727529840955536E-002
  -1.2333333333333336E-005    -1.5350145035018088E-002
  -1.2133333333333335E-005    -1.7079595438867921E-002
  -1.1933333333333337E-005    -1.7607139467963308E-002
  -1.1733333333333335E-005    -1.6695325150570602E-002
  -1.1533333333333337E-005    -1.4216404689737233E-002
  -1.1333333333333336E-005    -1.0182496992993216E-002
  -1.1133333333333337E-005    -4.7623506844044388E-003
  -1.0933333333333336E-005     1.7190900563412532E-003
  -1.0733333333333334E-005     8.8001834162659536E-003
  -1.0533333333333336E-005     1.5920496068961322E-002
  -1.0333333333333335E-005     2.2473717922960310E-002
  -1.0133333333333337E-005     2.7869579507840095E-002
  -9.9333333333333354E-006     3.1596833215633557E-002
  -9.7333333333333373E-006     3.3278473958593298E-002
  -9.5333333333333358E-006     3.2710985795397468E-002
  -9.3333333333333343E-006     2.9881597381984520E-002
  -9.1333333333333362E-006     2.4960927435965855E-002
  -8.9333333333333348E-006     1.8272639593940567E-002
  -8.7333333333333367E-006     1.0245876626435384E-002
  -8.5333333333333352E-006     1.3593852635636430E-003
  -8.3333333333333371E-006    -7.9122876010891494E-003
  -8.1333333333333356E-006    -1.7140812367142103E-002
  -7.9333333333333376E-006    -2.5967332946461939E-002
  -7.7333333333333361E-006    -3.4104193357094956E-002
  -7.5333333333333346E-006    -4.1317242675819967E-002
  -7.3333333333333365E-006    -4.7395114338334161E-002
  -7.1333333333333351E-006    -5.2114894651637753E-002
  -6.9333333333333370E-006    -5.5214438580763039E-002
  -6.7333333333333355E-006    -5.6380287524742716E-002
  -6.5333333333333374E-006    -5.5256964946299530E-002
  -6.3333333333333359E-006    -5.1479124475106997E-002
  -6.1333333333333379E-006    -4.4723406273757371E-002
  -5.9333333333333364E-006    -3.4772941705814214E-002
  -5.7333333333333349E-006    -2.1584656775412756E-002
  -5.5333333333333368E-006    -5.3485755177810372E-003
  -5.3333333333333354E-006     1.3471204486780693E-002
  -5.1333333333333373E-006     3.4122128822248500E-002
  -4.9333333333333358E-006     5.5580524047280123E-002
  -4.7333333333333377E-006     7.6602008988529702E-002
  -4.5333333333333362E-006     9.5802262279668010E-002
  -4.3333333333333348E-006    0.11176155060736276     
  -4.1333333333333367E-006    0.12314309886065657     
  -3.9333333333333352E-006    0.12881291346542190     
  -3.7333333333333371E-006    0.12794788171893051     
  -3.5333333333333356E-006    0.12011950151988532     
  -3.3333333333333376E-006    0.10534326117119273     
  -3.1333333333333361E-006     8.4087851827985449E-002
  -2.9333333333333346E-006     5.7243328581131576E-002
  -2.7333333333333365E-006     2.6053076745922464E-002
  -2.5333333333333384E-006    -7.9810513392957680E-003
  -2.3333333333333336E-006    -4.3208013649830776E-002
  -2.1333333333333355E-006    -7.7938048748951230E-002
  -1.9333333333333374E-006   -0.11054263178332482     
  -1.7333333333333393E-006   -0.13953570512387567     
  -1.5333333333333345E-006   -0.16363239879243846     
  -1.3333333333333364E-006   -0.18178608701349527     
  -1.1333333333333383E-006   -0.19320768229910618     
  -9.3333333333333343E-007   -0.19737317898470619     
  -7.3333333333333535E-007   -0.19402478922309263     
  -5.3333333333333726E-007   -0.18316964655530096     
  -3.3333333333333918E-007   -0.16507712273286998     
  -1.3333333333333432E-007   -0.14027369633743333     
   6.6666666666663770E-008   -0.10953248207498339     
   2.6666666666666185E-007    -7.3854175382079279E-002
   4.6666666666666672E-007    -3.4437151295120469E-002
   6.6666666666666480E-007     7.3640097492530011E-003
   8.6666666666666289E-007     5.0090280951807460E-002
   1.0666666666666610E-006     9.2237451875146925E-002
   1.2666666666666658E-006    0.13231908548563645     
   1.4666666666666639E-006    0.16892934112212532     
   1.6666666666666620E-006    0.20080202088123814     
   1.8666666666666669E-006    0.22686279700312850     
   2.0666666666666649E-006    0.24627212914287247     
   2.2666666666666630E-006    0.25845631239119227     
   2.4666666666666611E-006    0.26312438133056232     
   2.6666666666666660E-006    0.26026893451064781     
   2.8666666666666641E-006    0.25014949314633478     
   3.0666666666666622E-006    0.23325864658124962     
   3.2666666666666602E-006    0.21027307192763489     
   3.4666666666666651E-006    0.18199424527070332     
   3.6666666666666632E-006    0.14928454755265413     
   3.8666666666666613E-006    0.11300681116397894     
   4.0666666666666661E-006     7.3974003033677044E-002
   4.2666666666666642E-006     3.2914936320443469E-002
   4.4666666666666623E-006    -9.5407993918789034E-003
   4.6666666666666604E-006    -5.2858309125425121E-002
   4.8666666666666652E-006    -9.6575562328346923E-002
   5.0666666666666633E-006   -0.14026844592286278     
   5.2666666666666614E-006   -0.18350808051247161     
   5.4666666666666663E-006   -0.22581620068480757     
   5.6666666666666644E-006   -0.26662438134261435     
   5.8666666666666624E-006   -0.30524327924007688     
   6.0666666666666605E-006   -0.34084764549591606     
   6.2666666666666654E-006   -0.37248385735856598     
   6.4666666666666635E-006   -0.39910521774631336     
   6.6666666666666616E-006   -0.41963895146379715     
   6.8666666666666664E-006   -0.43308567703097678     
   7.0666666666666645E-006   -0.43864579277908239     
   7.2666666666666626E-006   -0.43586186473059269     
   7.4666666666666607E-006   -0.42475861899507744     
   7.6666666666666655E-006   -0.40595840382016385     
   7.8666666666666636E-006   -0.38074780611188225     
   8.0666666666666617E-006   -0.35107480474581804     
   8.2666666666666598E-006   -0.31946293816024901     
   8.4666666666666647E-006   -0.28884055279898141     
   8.6666666666666627E-006   -0.26229707307803851     
   8.8666666666666608E-006   -0.24279042309010956     
   9.0666666666666657E-006   -0.23284031830387347     
   9.2666666666666638E-006   -0.23424721416565325     
   9.4666666666666619E-006   -0.24787549628893829     
   9.6666666666666599E-006   -0.27353312292215692     
   9.8666666666666648E-006   -0.30996719000167244     
   1.0066666666666663E-005   -0.35498079781177461     
   1.0266666666666661E-005   -0.40566009483840892     
   1.0466666666666666E-005   -0.45868663344994021     
   1.0666666666666664E-005   -0.51069830600458876     
   1.0866666666666662E-005   -0.55865586984317572     
   1.1066666666666660E-005   -0.60017080128365230     
   1.1266666666666665E-005   -0.63375335853409298     
   1.1466666666666663E-005   -0.65894969982222262     
   1.1666666666666661E-005   -0.67634901648551471     
   1.1866666666666666E-005   -0.68745723221607369     
   1.2066666666666664E-005   -0.69445100850789976     
   1.2266666666666662E-005   -0.69984002766913900     
   1.2466666666666660E-005   -0.70607809491593310     
   1.2666666666666665E-005   -0.71517016816982959     
   1.2866666666666663E-005   -0.72832212786515993     
   1.3066666666666661E-005   -0.74567446808516447     
   1.3266666666666666E-005   -0.76614832969906277     
   1.3466666666666664E-005   -0.78741719567490021     
   1.3666666666666662E-005   -0.80600057398573310     
   1.3866666666666660E-005   -0.81746280226981272     
   1.4066666666666665E-005   -0.81668876909324573     
   1.4266666666666663E-005   -0.79820500934786454     
   1.4466666666666661E-005   -0.75651627714111358     
   1.4666666666666666E-005   -0.68643205509098792     
   1.4866666666666664E-005   -0.58336479431592014     
   1.5066666666666662E-005   -0.44358923433985264     
   1.5266666666666661E-005   -0.26445531556434976     
   1.5466666666666665E-005    -4.4548193553187121E-002
   1.5666666666666663E-005    0.21621147124702556     
   1.5866666666666662E-005    0.51653779864655658     
   1.6066666666666660E-005    0.85383036093484121     
   1.6266666666666665E-005     1.2243154651816051     
   1.6466666666666663E-005     1.6232804240370864     
   1.6666666666666661E-005     2.0453932634445824     
   1.6866666666666666E-005     2.4850887527380476     
   1.7066666666666664E-005     2.9369883791674791     
   1.7266666666666662E-005     3.3963129422911211     
   1.7466666666666660E-005     3.8592412852846065     
   1.7666666666666665E-005     4.3231719316031638     
   1.7866666666666663E-005     4.7868530229567785     
   1.8066666666666661E-005     5.2503625384279502     
   1.8266666666666666E-005     5.7149357415946112     
   1.8466666666666664E-005     6.1826558664427820     
   1.8666666666666662E-005     6.6560475711077105     
   1.8866666666666660E-005     7.1376135971360899     
   1.9066666666666665E-005     7.6293712578968096     
   1.9266666666666663E-005     8.1324411378173913     
   1.9466666666666661E-005     8.6467301298598827     
   1.9666666666666666E-005     9.1707484167507296     
   1.9866666666666664E-005     9.7015669672861833     
   2.0066666666666662E-005     10.234919119355329     
   2.0266666666666660E-005     10.765414842620952     
   2.0466666666666665E-005     11.286842208349530     
   2.0666666666666663E-005     11.792483984826802     
   2.0866666666666661E-005     12.275422570538833     
   2.1066666666666659E-005     12.728765011785574     
   2.1266666666666664E-005     13.145769047235287     
   2.1466666666666662E-005     13.519859579086095     
   2.1666666666666660E-005     13.844545699514931     
   2.1866666666666665E-005     14.113267563219654     
   2.2066666666666663E-005     14.319224864566298     
   2.2266666666666661E-005     14.455237614769345     
   2.2466666666666659E-005     14.513681539298695     
   2.2666666666666664E-005     14.486527291715170     
   2.2866666666666662E-005     14.365492897084364     
   2.3066666666666660E-005     14.142289609113652     
   2.3266666666666665E-005     13.808930576209187     
   2.3466666666666663E-005     13.358058765221864     
   2.3666666666666661E-005     12.783244138369106     
   2.3866666666666660E-005     12.079222601145819     
   2.4066666666666664E-005     11.242048749012993     
   2.4266666666666662E-005     10.269165961176860     
   2.4466666666666661E-005     9.1594127839454806     
   2.4666666666666665E-005     7.9129864911797130     
   2.4866666666666663E-005     6.5313973118926638     
   2.5066666666666662E-005     5.0174384858238259     
   2.5266666666666660E-005     3.3751843962184171     
   2.5466666666666665E-005     1.6100229412980815     
   2.5666666666666663E-005   -0.27129902138100381     
   2.5866666666666661E-005    -2.2606286754045737     
   2.6066666666666666E-005    -4.3483968896566765     
   2.6266666666666664E-005    -6.5236629234492947     
   2.6466666666666662E-005    -8.7742317179655842     
   2.6666666666666660E-005    -11.086866341272424     
   2.6866666666666665E-005    -13.447576158816098     
   2.7066666666666663E-005    -15.841968762161976     
   2.7266666666666661E-005    -18.255651471286637     
   2.7466666666666666E-005    -20.674631412231953     
   2.7666666666666664E-005    -23.085688988501317     
   2.7866666666666662E-005    -25.476675864781161     
   2.8066666666666667E-005    -27.836722871374970     
   2.8266666666666658E-005    -30.156315705854524     
   2.8466666666666663E-005    -32.427262165605164     
   2.8666666666666668E-005    -34.642529672768362     
   2.8866666666666659E-005    -36.796007547194428     
   2.9066666666666664E-005    -38.882207468679510     
   2.9266666666666669E-005    -40.895963284222084     
   2.9466666666666660E-005    -42.832163973720967     
   2.9666666666666665E-005    -44.685529712376194     
   2.9866666666666656E-005    -46.450493063068272     
   3.0066666666666661E-005    -48.121140720940687     
   3.0266666666666666E-005    -49.691227798661153     
   3.0466666666666657E-005    -51.154241729565243     
   3.0666666666666662E-005    -52.503486181457077     
   3.0866666666666667E-005    -53.732150177941065     
   3.1066666666666658E-005    -54.833362074435243     
   3.1266666666666663E-005    -55.800241822475002     
   3.1466666666666668E-005    -56.625890109917805     
   3.1666666666666659E-005    -57.303411931742488     
   3.1866666666666664E-005    -57.825905578027204     
   3.2066666666666656E-005    -58.186462766980000     
   3.2266666666666660E-005    -58.378137290437081     
   3.2466666666666665E-005    -58.393907516619350     
   3.2666666666666657E-005    -58.226595600908659     
   3.2866666666666661E-005    -57.868724785568958     
   3.3066666666666666E-005    -57.312345586550812     
   3.3266666666666658E-005    -56.548852387738336     
   3.3466666666666662E-005    -55.568783947614932     
   3.3666666666666667E-005    -54.361729896807844     
   3.3866666666666659E-005    -52.916318374653279     
   3.4066666666666664E-005    -51.220414325247276     
   3.4266666666666668E-005    -49.261478195110968     
   3.4466666666666660E-005    -47.027168598734129     
   3.4666666666666665E-005    -44.506095267929432     
   3.4866666666666656E-005    -41.688725432065525     
   3.5066666666666661E-005    -38.568312160581087     
   3.5266666666666666E-005    -35.141807062910061     
   3.5466666666666657E-005    -31.410618651582816     
   3.5666666666666662E-005    -27.381166556106088     
   3.5866666666666667E-005    -23.065149922406260     
   3.6066666666666658E-005    -18.479511942211833     
   3.6266666666666663E-005    -13.646111780084425     
   3.6466666666666668E-005    -8.5911291160484957     
   3.6666666666666659E-005    -3.3442802752074199     
   3.6866666666666664E-005     2.0620669413272092     
   3.7066666666666669E-005     7.5937632259356747     
   3.7266666666666660E-005     13.215652540062253     
   3.7466666666666665E-005     18.892147344982856     
   3.7666666666666656E-005     24.587558985189787     
   3.7866666666666661E-005     30.266148139481437     
   3.8066666666666666E-005     35.891936267391095     
   3.8266666666666657E-005     41.428290509750276     
   3.8466666666666662E-005     46.837388865952164     
   3.8666666666666667E-005     52.079676063660045     
   3.8866666666666658E-005     57.113378872650472     
   3.9066666666666663E-005     61.894146241882403     
   3.9266666666666668E-005     66.374960954710062     
   3.9466666666666659E-005     70.506235982328050     
   3.9666666666666664E-005     74.236197245170644     
   3.9866666666666655E-005     77.511425046673509     
   4.0066666666666660E-005     80.277630886634242     
   4.0266666666666665E-005     82.480495487616182     
   4.0466666666666656E-005     84.066612468017510     
   4.0666666666666661E-005     84.984510471107512     
   4.0866666666666666E-005     85.185659470585634     
   4.1066666666666657E-005     84.625560563284651     
   4.1266666666666662E-005     83.264847913216784     
   4.1466666666666667E-005     81.070382159967252     
   4.1666666666666658E-005     78.016382405300106     
   4.1866666666666663E-005     74.085510208588587     
   4.2066666666666668E-005     69.269860124782952     
   4.2266666666666660E-005     63.571846949025542     
   4.2466666666666664E-005     57.004876794602936     
   4.2666666666666656E-005     49.593823338725144     
   4.2866666666666661E-005     41.375245891410984     
   4.3066666666666665E-005     32.397394438925957     
   4.3266666666666657E-005     22.719990443238832     
   4.3466666666666662E-005     12.413839847480936     
   4.3666666666666666E-005     1.5603446457899803     
   4.3866666666666658E-005    -9.7490666091700682     
   4.4066666666666663E-005    -21.413511662785094     
   4.4266666666666667E-005    -33.323234758481640     
   4.4466666666666659E-005    -45.360171266430804     
   4.4666666666666664E-005    -57.398505477475283     
   4.4866666666666655E-005    -69.305320273846490     
   4.5066666666666660E-005    -80.941304952477509     
   4.5266666666666665E-005    -92.161645152964354     
   4.5466666666666656E-005    -102.81716105942553     
   4.5666666666666661E-005    -112.75569064934626     
   4.5866666666666666E-005    -121.82382322411033     
   4.6066666666666657E-005    -129.86892170706170     
   4.6266666666666662E-005    -136.74143234484808     
   4.6466666666666667E-005    -142.29742715158912     
   4.6666666666666658E-005    -146.40119025418858     
   4.6866666666666663E-005    -148.92791577731043     
   4.7066666666666668E-005    -149.76620204894675     
   4.7266666666666659E-005    -148.82035336860514     
   4.7466666666666664E-005    -146.01235538889742     
   4.7666666666666655E-005    -141.28357848881191     
   4.7866666666666660E-005    -134.59600413923877     
   4.8066666666666665E-005    -125.93328645847433     
   4.8266666666666656E-005    -115.30146140201498     
   4.8466666666666661E-005    -102.72942199142163     
   4.8666666666666666E-005    -88.269384839178869     
   4.8866666666666657E-005    -71.997184747112584     
   4.9066666666666662E-005    -54.012514839458163     
   4.9266666666666667E-005    -34.439083706166564     
   4.9466666666666658E-005    -13.424652890656070     
   4.9666666666666663E-005     8.8590975105165004     
   4.9866666666666655E-005     32.217007913276532     
   5.0066666666666659E-005     56.431157095296186     
   5.0266666666666664E-005     81.261980163050865     
   5.0466666666666656E-005     106.44977821819620     
   5.0666666666666660E-005     131.71665093486817     
   5.0866666666666665E-005     156.76885970687266     
   5.1066666666666657E-005     181.29947105905626     
   5.1266666666666661E-005     204.99140754997808     
   5.1466666666666666E-005     227.52067383615116     
   5.1666666666666658E-005     248.55984423993090     
   5.1866666666666662E-005     267.78162126342960     
   5.2066666666666667E-005     284.86244398458439     
   5.2266666666666659E-005     299.48621416622120     
   5.2466666666666664E-005     311.34774505229115     
   5.2666666666666655E-005     320.15652353441556     
   5.2866666666666660E-005     325.64019635265242     
   5.3066666666666665E-005     327.54793463715760     
   5.3266666666666656E-005     325.65395547646796     
   5.3466666666666661E-005     319.76096429511443     
   5.3666666666666666E-005     309.70329647522476     
   5.3866666666666657E-005     295.35033279122200     
   5.4066666666666662E-005     276.60949621018636     
   5.4266666666666667E-005     253.42943618942138     
   5.4466666666666658E-005     225.80272077237399     
   5.4666666666666663E-005     193.76832545095868     
   5.4866666666666668E-005     157.41384313467552     
   5.5066666666666659E-005     116.87716714743578     
   5.5266666666666664E-005     72.347837567184598     
   5.5466666666666655E-005     24.067641396431284     
   5.5666666666666660E-005    -27.669160216047736     
   5.5866666666666665E-005    -82.516312955901100     
   5.6066666666666656E-005    -140.07664550965296     
   5.6266666666666661E-005    -199.90389279725997     
   5.6466666666666666E-005    -261.50502648429244     
   5.6666666666666657E-005    -324.34337292879093     
   5.6866666666666662E-005    -387.84231761308661     
   5.7066666666666667E-005    -451.38984646215255     
   5.7266666666666658E-005    -514.34338456043133     
   5.7466666666666663E-005    -576.03556771442970     
   5.7666666666666654E-005    -635.78026276274386     
   5.7866666666666659E-005    -692.87906742989242     
   5.8066666666666664E-005    -746.62827161549171     
   5.8266666666666655E-005    -796.32594421129102     
   5.8466666666666660E-005    -841.27922810049631     
   5.8666666666666665E-005    -880.81175263921614     
   5.8866666666666656E-005    -914.27077583506411     
   5.9066666666666661E-005    -941.03496357688221     
   5.9266666666666666E-005    -960.52111451102110     
   5.9466666666666657E-005    -972.19157792286796     
   5.9666666666666662E-005    -975.56082094404474     
   5.9866666666666667E-005    -970.20202213227435     
   6.0066666666666659E-005    -955.75327299198352     
   6.0266666666666663E-005    -931.92347762287682     
   6.0466666666666655E-005    -898.49813236405475     
   6.0666666666666660E-005    -855.34398536203321     
   6.0866666666666664E-005    -802.41353887872265     
   6.1066666666666656E-005    -739.74929735092110     
   6.1266666666666661E-005    -667.48657775980269     
   6.1466666666666665E-005    -585.85617742823206     
   6.1666666666666657E-005    -495.18575066988097     
   6.1866666666666662E-005    -395.90012544478054     
   6.2066666666666666E-005    -288.52070383792432     
   6.2266666666666658E-005    -173.66348026354953     
   6.2466666666666663E-005    -52.035697919202597     
   6.2666666666666668E-005     75.568581257888013     
   6.2866666666666659E-005     208.27428020635500     
   6.3066666666666664E-005     345.13192916123899     
   6.3266666666666655E-005     485.12560505954519     
   6.3466666666666660E-005     627.18144416029349     
   6.3666666666666665E-005     770.17711414109579     
   6.3866666666666656E-005     912.95138412241442     
   6.4066666666666661E-005     1054.3145268962533     
   6.4266666666666666E-005     1193.0586896864281     
   6.4466666666666657E-005     1327.9687091199889     
   6.4666666666666662E-005     1457.8328034246158     
   6.4866666666666667E-005     1581.4539112718294     
   6.5066666666666658E-005     1697.6600008469973     
   6.5266666666666663E-005     1805.3155223170324     
   6.5466666666666654E-005     1903.3319706888337     
   6.5666666666666659E-005     1990.6788121337631     
   6.5866666666666664E-005     2066.3938495302059     
   6.6066666666666655E-005     2129.5935997073047     
   6.6266666666666660E-005     2179.4827807064994     
   6.6466666666666665E-005     2215.3643296698474     
   6.6666666666666656E-005     2236.6472119855898     
   6.6866666666666661E-005     2242.8549397469887     
   6.7066666666666666E-005     2233.6325924581597     
   6.7266666666666657E-005     2208.7524708435812     
   6.7466666666666662E-005     2168.1190091484164     
   6.7666666666666667E-005     2111.7720321109923     
   6.7866666666666658E-005     2039.8899017019194     
   6.8066666666666663E-005     1952.7891737403911     
   6.8266666666666655E-005     1850.9255509202039     
   6.8466666666666659E-005     1734.8916136744683     
   6.8666666666666664E-005     1605.4138749996202     
   6.8866666666666656E-005     1463.3488625070850     
   6.9066666666666660E-005     1309.6771190101372     
   6.9266666666666665E-005     1145.4967929769768     
   6.9466666666666657E-005     972.01474762323562     
   6.9666666666666661E-005     790.53787626065741     
   6.9866666666666666E-005     602.46230231361938     
   7.0066666666666658E-005     409.26201997231544     
   7.0266666666666662E-005     212.47628093139019     
   7.0466666666666654E-005     13.696339355211546     
   7.0666666666666659E-005    -185.44843742533195     
   7.0866666666666664E-005    -383.30513856874614     
   7.1066666666666655E-005    -578.21218228305270     
   7.1266666666666660E-005    -768.51454804558512     
   7.1466666666666665E-005    -952.57911830055218     
   7.1666666666666656E-005    -1128.8102886379606     
   7.1866666666666661E-005    -1295.6652806727693     
   7.2066666666666666E-005    -1451.6690973155428     
   7.2266666666666657E-005    -1595.4296954641841     
   7.2466666666666662E-005    -1725.6518511856436     
   7.2666666666666667E-005    -1841.1511489096324     
   7.2866666666666658E-005    -1940.8668871963166     
   7.3066666666666663E-005    -2023.8739723896349     
   7.3266666666666654E-005    -2089.3928982941115     
   7.3466666666666659E-005    -2136.8007967699082     
   7.3666666666666664E-005    -2165.6380989230370     
   7.3866666666666655E-005    -2175.6154300057033     
   7.4066666666666660E-005    -2166.6190217570852     
   7.4266666666666665E-005    -2138.7135270836857     
   7.4466666666666656E-005    -2092.1436213634174     
   7.4666666666666661E-005    -2027.3341897307719     
   7.4866666666666666E-005    -1944.8877310780663     
   7.5066666666666657E-005    -1845.5811106310782     
   7.5266666666666662E-005    -1730.3603771999888     
   7.5466666666666653E-005    -1600.3329645834706     