  -3.3333333333333335E-005     0.0000000000000000     
  -3.3133333333333337E-005     0.0000000000000000     
  -3.2933333333333332E-005     0.0000000000000000     
  -3.2733333333333334E-005     0.0000000000000000     
  -3.2533333333333336E-005     0.0000000000000000     
  -3.2333333333333338E-005     0.0000000000000000     
  -3.2133333333333333E-005     0.0000000000000000     
  -3.1933333333333335E-005     0.0000000000000000     
  -3.1733333333333337E-005     0.0000000000000000     
  -3.1533333333333332E-005     0.0000000000000000     
  -3.1333333333333334E-005     0.0000000000000000     
  -3.1133333333333336E-005     0.0000000000000000     
  -3.0933333333333338E-005     0.0000000000000000     
  -3.0733333333333333E-005     0.0000000000000000     
  -3.0533333333333335E-005     0.0000000000000000     
  -3.0333333333333337E-005     0.0000000000000000     
  -3.0133333333333335E-005     0.0000000000000000     
  -2.9933333333333334E-005     0.0000000000000000     
  -2.9733333333333336E-005     0.0000000000000000     
  -2.9533333333333334E-005     0.0000000000000000     
  -2.9333333333333336E-005     0.0000000000000000     
  -2.9133333333333334E-005     0.0000000000000000     
  -2.8933333333333336E-005     0.0000000000000000     
  -2.8733333333333335E-005     0.0000000000000000     
  -2.8533333333333333E-005     0.0000000000000000     
  -2.8333333333333335E-005     0.0000000000000000     
  -2.8133333333333337E-005     0.0000000000000000     
  -2.7933333333333336E-005     0.0000000000000000     
  -2.7733333333333334E-005     0.0000000000000000     
  -2.7533333333333336E-005     0.0000000000000000     
  -2.7333333333333335E-005     0.0000000000000000     
  -2.7133333333333333E-005     0.0000000000000000     
  -2.6933333333333335E-005     0.0000000000000000     
  -2.6733333333333337E-005     0.0000000000000000     
  -2.6533333333333336E-005     0.0000000000000000     
  -2.6333333333333334E-005     0.0000000000000000     
  -2.6133333333333336E-005     0.0000000000000000     
  -2.5933333333333335E-005     0.0000000000000000     
  -2.5733333333333333E-005     0.0000000000000000     
  -2.5533333333333335E-005     0.0000000000000000     
  -2.5333333333333337E-005     0.0000000000000000     
  -2.5133333333333336E-005     0.0000000000000000     
  -2.4933333333333334E-005     0.0000000000000000     
  -2.4733333333333336E-005     0.0000000000000000     
  -2.4533333333333334E-005     0.0000000000000000     
  -2.4333333333333333E-005     0.0000000000000000     
  -2.4133333333333335E-005     0.0000000000000000     
  -2.3933333333333337E-005     0.0000000000000000     
  -2.3733333333333335E-005     0.0000000000000000     
  -2.3533333333333334E-005     0.0000000000000000     
  -2.3333333333333336E-005     0.0000000000000000     
  -2.3133333333333338E-005     0.0000000000000000     
  -2.2933333333333336E-005     0.0000000000000000     
  -2.2733333333333335E-005     0.0000000000000000     
  -2.2533333333333337E-005     0.0000000000000000     
  -2.2333333333333335E-005     0.0000000000000000     
  -2.2133333333333334E-005     0.0000000000000000     
  -2.1933333333333336E-005     0.0000000000000000     
  -2.1733333333333338E-005     0.0000000000000000     
  -2.1533333333333336E-005     0.0000000000000000     
  -2.1333333333333335E-005     0.0000000000000000     
  -2.1133333333333337E-005     0.0000000000000000     
  -2.0933333333333335E-005     0.0000000000000000     
  -2.0733333333333334E-005     0.0000000000000000     
  -2.0533333333333336E-005     0.0000000000000000     
  -2.0333333333333337E-005     0.0000000000000000     
  -2.0133333333333336E-005     0.0000000000000000     
  -1.9933333333333334E-005     0.0000000000000000     
  -1.9733333333333336E-005     0.0000000000000000     
  -1.9533333333333335E-005     0.0000000000000000     
  -1.9333333333333333E-005     0.0000000000000000     
  -1.9133333333333335E-005     0.0000000000000000     
  -1.8933333333333337E-005     0.0000000000000000     
  -1.8733333333333336E-005     0.0000000000000000     
  -1.8533333333333334E-005     0.0000000000000000     
  -1.8333333333333336E-005     0.0000000000000000     
  -1.8133333333333335E-005     0.0000000000000000     
  -1.7933333333333337E-005     0.0000000000000000     
  -1.7733333333333335E-005     0.0000000000000000     
  -1.7533333333333337E-005     0.0000000000000000     
  -1.7333333333333336E-005     0.0000000000000000     
  -1.7133333333333334E-005     0.0000000000000000     
  -1.6933333333333336E-005     0.0000000000000000     
  -1.6733333333333335E-005     0.0000000000000000     
  -1.6533333333333337E-005     0.0000000000000000     
  -1.6333333333333335E-005     0.0000000000000000     
  -1.6133333333333337E-005     0.0000000000000000     
  -1.5933333333333336E-005     0.0000000000000000     
  -1.5733333333333334E-005     0.0000000000000000     
  -1.5533333333333336E-005     0.0000000000000000     
  -1.5333333333333334E-005     0.0000000000000000     
  -1.5133333333333336E-005     0.0000000000000000     
  -1.4933333333333335E-005     0.0000000000000000     
  -1.4733333333333337E-005     0.0000000000000000     
  -1.4533333333333335E-005     0.0000000000000000     
  -1.4333333333333337E-005     0.0000000000000000     
  -1.4133333333333336E-005     0.0000000000000000     
  -1.3933333333333334E-005     0.0000000000000000     
  -1.3733333333333336E-005     0.0000000000000000     
  -1.3533333333333335E-005     0.0000000000000000     
  -1.3333333333333337E-005     0.0000000000000000     
  -1.3133333333333335E-005     0.0000000000000000     
  -1.2933333333333337E-005     0.0000000000000000     
  -1.2733333333333336E-005     0.0000000000000000     
  -1.2533333333333338E-005     0.0000000000000000     
  -1.2333333333333336E-005     0.0000000000000000     
  -1.2133333333333335E-005     0.0000000000000000     
  -1.1933333333333337E-005     0.0000000000000000     
  -1.1733333333333335E-005     0.0000000000000000     
  -1.1533333333333337E-005     0.0000000000000000     
  -1.1333333333333336E-005     0.0000000000000000     
  -1.1133333333333337E-005     0.0000000000000000     
  -1.0933333333333336E-005     0.0000000000000000     
  -1.0733333333333334E-005     0.0000000000000000     
  -1.0533333333333336E-005     0.0000000000000000     
  -1.0333333333333335E-005     0.0000000000000000     
  -1.0133333333333337E-005     0.0000000000000000     
  -9.9333333333333354E-006     0.0000000000000000     
  -9.7333333333333373E-006     0.0000000000000000     
  -9.5333333333333358E-006     0.0000000000000000     
  -9.3333333333333343E-006     0.0000000000000000     
  -9.1333333333333362E-006     0.0000000000000000     
  -8.9333333333333348E-006     0.0000000000000000     
  -8.7333333333333367E-006     0.0000000000000000     
  -8.5333333333333352E-006     0.0000000000000000     
  -8.3333333333333371E-006     0.0000000000000000     
  -8.1333333333333356E-006     0.0000000000000000     
  -7.9333333333333376E-006     0.0000000000000000     
  -7.7333333333333361E-006     0.0000000000000000     
  -7.5333333333333346E-006     0.0000000000000000     
  -7.3333333333333365E-006     0.0000000000000000     
  -7.1333333333333351E-006     0.0000000000000000     
  -6.9333333333333370E-006     0.0000000000000000     
  -6.7333333333333355E-006     0.0000000000000000     
  -6.5333333333333374E-006     0.0000000000000000     
  -6.3333333333333359E-006     0.0000000000000000     
  -6.1333333333333379E-006     0.0000000000000000     
  -5.9333333333333364E-006     0.0000000000000000     
  -5.7333333333333349E-006     0.0000000000000000     
  -5.5333333333333368E-006     0.0000000000000000     
  -5.3333333333333354E-006     0.0000000000000000     
  -5.1333333333333373E-006     0.0000000000000000     
  -4.9333333333333358E-006     0.0000000000000000     
  -4.7333333333333377E-006     0.0000000000000000     
  -4.5333333333333362E-006     0.0000000000000000     
  -4.3333333333333348E-006     0.0000000000000000     
  -4.1333333333333367E-006     0.0000000000000000     
  -3.9333333333333352E-006     0.0000000000000000     
  -3.7333333333333371E-006     0.0000000000000000     
  -3.5333333333333356E-006     0.0000000000000000     
  -3.3333333333333376E-006     0.0000000000000000     
  -3.1333333333333361E-006     0.0000000000000000     
  -2.9333333333333346E-006     0.0000000000000000     
  -2.7333333333333365E-006     0.0000000000000000     
  -2.5333333333333384E-006     0.0000000000000000     
  -2.3333333333333336E-006     0.0000000000000000     
  -2.1333333333333355E-006     0.0000000000000000     
  -1.9333333333333374E-006     0.0000000000000000     
  -1.7333333333333393E-006     0.0000000000000000     
  -1.5333333333333345E-006     0.0000000000000000     
  -1.3333333333333364E-006     0.0000000000000000     
  -1.1333333333333383E-006     0.0000000000000000     
  -9.3333333333333343E-007     0.0000000000000000     
  -7.3333333333333535E-007     0.0000000000000000     
  -5.3333333333333726E-007     0.0000000000000000     
  -3.3333333333333918E-007     0.0000000000000000     
  -1.3333333333333432E-007     3.1686630496731755E-041
   6.6666666666663770E-008     7.1544028988677398E-041
   2.6666666666666185E-007     7.1544028988677398E-041
   4.6666666666666672E-007     1.3253351339332459E-040
   6.6666666666666480E-007     1.0369953757286088E-040
   8.6666666666666289E-007    -1.0021586053950682E-040
   1.0666666666666610E-006    -5.5276777153362583E-040
   1.2666666666666658E-006    -1.2438336566502518E-039
   1.4666666666666639E-006    -1.5603117768826860E-039
   1.6666666666666620E-006    -1.0326948234947353E-039
   1.8666666666666669E-006    -1.0718367550664288E-039
   2.0666666666666649E-006    -1.0609749901530008E-039
   2.2666666666666630E-006    -2.4154295125367275E-040
   2.4666666666666611E-006     1.3992039720956459E-039
   2.6666666666666660E-006     5.5881316016269105E-039
   2.8666666666666641E-006     1.5271472470085279E-038
   3.0666666666666622E-006     2.6241766955247733E-038
   3.2666666666666602E-006     3.4473251661243143E-038
   3.4666666666666651E-006     3.3892160831442803E-038
   3.6666666666666632E-006     2.3476149055662807E-038
   3.8666666666666613E-006    -3.3279250783246800E-039
   4.0666666666666661E-006    -4.5103945385554349E-038
   4.2666666666666642E-006    -9.3416210145151149E-038
   4.4666666666666623E-006    -1.2808217075205643E-037
   4.6666666666666604E-006    -1.4661000510508667E-037
   4.8666666666666652E-006    -1.3275961599135515E-037
   5.0666666666666633E-006    -9.8073637278044971E-038
   5.2666666666666614E-006    -1.0668737752845315E-038
   5.4666666666666663E-006     1.1966176132815388E-037
   5.6666666666666644E-006     2.8191551784368807E-037
   5.8666666666666624E-006     4.4835327071438418E-037
   6.0666666666666605E-006     6.0849074505625552E-037
   6.2666666666666654E-006     7.1797046691770518E-037
   6.4666666666666635E-006     7.1609624315032751E-037
   6.6666666666666616E-006     5.7387312800893127E-037
   6.8666666666666664E-006     2.3284931741678028E-037
   7.0666666666666645E-006    -3.3991067469607293E-037
   7.2666666666666626E-006    -1.1448793547562862E-036
   7.4666666666666607E-006    -2.1323138282857920E-036
   7.6666666666666655E-006    -3.1910832887363133E-036
   7.8666666666666636E-006    -4.1348213538625239E-036
   8.0666666666666617E-006    -4.7138529329000313E-036
   8.2666666666666598E-006    -4.5821576731567305E-036
   8.4666666666666647E-006    -3.3541071406217221E-036
   8.6666666666666627E-006    -6.4910964340146193E-037
   8.8666666666666608E-006     3.8185016809435028E-036
   9.0666666666666657E-006     1.0110356674574304E-035
   9.2666666666666638E-006     1.7887458611249540E-035
   9.4666666666666619E-006     2.6214558893061790E-035
   9.6666666666666599E-006     3.3385167864029109E-035
   9.8666666666666648E-006     3.6828909237518140E-035
   1.0066666666666663E-005     3.3211884763808340E-035
   1.0266666666666661E-005     1.8834081014906970E-035
   1.0466666666666666E-005    -9.5735157281872842E-036
   1.0666666666666664E-005    -5.3610894833182101E-035
   1.0866666666666662E-005    -1.1160173865734819E-034
   1.1066666666666660E-005    -1.7685846718231025E-034
   1.1266666666666665E-005    -2.3626908508417082E-034
   1.1466666666666663E-005    -2.6985836053991144E-034
   1.1666666666666661E-005    -2.5210324111279916E-034
   1.1866666666666666E-005    -1.5574663546828475E-034
   1.2066666666666664E-005     4.1441012913106549E-035
   1.2266666666666662E-005     3.4712291625695431E-034
   1.2466666666666660E-005     7.4320235825606121E-034
   1.2666666666666665E-005     1.1752880797099920E-033
   1.2866666666666663E-005     1.5463312326978341E-033
   1.3066666666666661E-005     1.7188000929628360E-033
   1.3266666666666666E-005     1.5297894411053839E-033
   1.3466666666666664E-005     8.2220241380858154E-034
   1.3666666666666662E-005    -5.0778387735459723E-034
   1.3866666666666660E-005    -2.4513951463533336E-033
   1.4066666666666665E-005    -4.8264333129891637E-033
   1.4266666666666663E-005    -7.2314815795693766E-033
   1.4466666666666661E-005    -9.0363941871892168E-033
   1.4666666666666666E-005    -9.4314530917099963E-033
   1.4866666666666664E-005    -7.5528323889324071E-033
   1.5066666666666662E-005    -2.6897076111216555E-033
   1.5266666666666661E-005     5.4418731245853010E-033
   1.5466666666666665E-005     1.6399716584836516E-032
   1.5666666666666663E-005     2.8760367921215775E-032
   1.5866666666666662E-005     4.0000663254783138E-032
   1.6066666666666660E-005     4.6616833417757888E-032
   1.6266666666666665E-005     4.4566631950747054E-032
   1.6466666666666663E-005     3.0073126208533326E-032
   1.6666666666666661E-005     7.4910812560739827E-034
   1.6866666666666666E-005    -4.3105457228896172E-032
   1.7066666666666664E-005    -9.7296698600079944E-032
   1.7266666666666662E-005    -1.5298297811002801E-031
   1.7466666666666660E-005    -1.9678212110283533E-031
   1.7666666666666665E-005    -2.1210466964964607E-031
   1.7866666666666663E-005    -1.8191932264522339E-031
   1.8066666666666661E-005    -9.2872066987733862E-032
   1.8266666666666666E-005     5.9705486326241755E-032
   1.8466666666666664E-005     2.6679305089484684E-031
   1.8666666666666662E-005     5.0195730076712512E-031
   1.8866666666666660E-005     7.2038435228701419E-031
   1.9066666666666665E-005     8.6205922216231601E-031
   1.9266666666666663E-005     8.6000095628981079E-031
   1.9466666666666661E-005     6.5356363795199242E-031
   1.9666666666666666E-005     2.0556251905846390E-031
   1.9866666666666664E-005    -4.7943345455673188E-031
   2.0066666666666662E-005    -1.3395888217692425E-030
   2.0266666666666660E-005    -2.2478092917698313E-030
   2.0466666666666665E-005    -3.0159325016293897E-030
   2.0666666666666663E-005    -3.4145474413090216E-030
   2.0866666666666661E-005    -3.2094246880736493E-030
   2.1066666666666659E-005    -2.2120487582940620E-030
   2.1266666666666664E-005    -3.3769858814202761E-031
   2.1466666666666662E-005     2.3392565830524806E-030
   2.1666666666666660E-005     5.5457616140829659E-030
   2.1866666666666665E-005     8.7995378918077853E-030
   2.2066666666666663E-005     1.1438614848871622E-029
   2.2266666666666661E-005     1.2696615386523423E-029
   2.2466666666666659E-005     1.1821701933958071E-029
   2.2666666666666664E-005     8.2279731197945921E-030
   2.2866666666666662E-005     1.6593565401431785E-030
   2.3066666666666660E-005    -7.6604646486900546E-030
   2.3266666666666665E-005    -1.8921316242470340E-029
   2.3466666666666663E-005    -3.0690253418087747E-029
   2.3666666666666661E-005    -4.0966696480463785E-029
   2.3866666666666660E-005    -4.7340328018385930E-029
   2.4066666666666664E-005    -4.7252501879089778E-029
   2.4266666666666662E-005    -3.8351982755895698E-029
   2.4466666666666661E-005    -1.8927936117868304E-029
   2.4666666666666665E-005     1.1603733484923746E-029
   2.4866666666666663E-005     5.2193004090535030E-029
   2.5066666666666662E-005     9.9674292046996320E-029
   2.5266666666666660E-005     1.4838278364040583E-028
   2.5466666666666665E-005     1.8997796232663771E-028
   2.5666666666666663E-005     2.1362872929853614E-028
   2.5866666666666661E-005     2.0675479701818241E-028
   2.6066666666666666E-005     1.5653138037399260E-028
   2.6266666666666664E-005     5.2319270579419594E-029
   2.6466666666666662E-005    -1.1095232062321307E-028
   2.6666666666666660E-005    -3.2866604830602738E-028
   2.6866666666666665E-005    -5.8222834857006298E-028
   2.7066666666666663E-005    -8.3560008328551655E-028
   2.7266666666666661E-005    -1.0340331542769780E-027
   2.7466666666666666E-005    -1.1066468306462509E-027
   2.7666666666666664E-005    -9.7440617492361259E-028
   2.7866666666666662E-005    -5.6450895955424810E-028
   2.8066666666666667E-005     1.6896290697587820E-028
   2.8266666666666658E-005     1.2200178508308640E-027
   2.8466666666666663E-005     2.5054270434604121E-027
   2.8666666666666668E-005     3.8453932919361427E-027
   2.8866666666666659E-005     4.9582259319252093E-027
   2.9066666666666664E-005     5.4774772536383725E-027
   2.9266666666666669E-005     4.9984590273355814E-027
   2.9466666666666660E-005     3.1569417036483797E-027
   2.9666666666666665E-005    -2.6395055219598908E-028
   2.9866666666666656E-005    -5.2116970687892239E-027
   3.0066666666666661E-005    -1.1250160403843806E-026
   3.0266666666666666E-005    -1.7484942135918602E-026
   3.0466666666666657E-005    -2.2564805939362403E-026
   3.0666666666666662E-005    -2.4793514167576440E-026
   3.0866666666666667E-005    -2.2374739976148258E-026
   3.1066666666666658E-005    -1.3790328707734339E-026
   3.1266666666666663E-005     1.7200376480840792E-027
   3.1466666666666668E-005     2.3648053766324300E-026
   3.1666666666666659E-005     4.9782819055260429E-026
   3.1866666666666664E-005     7.5989240048968018E-026
   3.2066666666666656E-005     9.6341040539373755E-026
   3.2266666666666660E-005     1.0372627428961528E-025
   3.2466666666666665E-005     9.0980895313210939E-026
   3.2666666666666657E-005     5.2505388477923685E-026
   3.2866666666666661E-005    -1.3811187885489873E-026
   3.3066666666666666E-005    -1.0467734009439281E-025
   3.3266666666666658E-005    -2.0993737064765237E-025
   3.3466666666666662E-005    -3.1207527878159299E-025
   3.3666666666666667E-005    -3.8717930612067804E-025
   3.3866666666666659E-005    -4.0772417830093754E-025
   3.4066666666666664E-005    -3.4725587039591769E-025
   3.4266666666666668E-005    -1.8666942844881690E-025
   3.4466666666666660E-005     7.8703409297473220E-026
   3.4666666666666665E-005     4.3245669372288196E-025
   3.4866666666666656E-005     8.3255393118166550E-025
   3.5066666666666661E-005     1.2106372015669042E-024
   3.5266666666666666E-005     1.4767978679138687E-024
   3.5466666666666657E-005     1.5308027726335927E-024
   3.5666666666666662E-005     1.2797338392853388E-024
   3.5866666666666667E-005     6.6060028295922677E-025
   3.6066666666666658E-005    -3.3510186097648146E-025
   3.6266666666666663E-005    -1.6394107245942124E-024
   3.6466666666666668E-005    -3.0940875911987909E-024
   3.6666666666666659E-005    -4.4508147354177325E-024
   3.6866666666666664E-005    -5.3903487542449930E-024
   3.7066666666666669E-005    -5.5633383847841389E-024
   3.7266666666666660E-005    -4.6519466337271329E-024
   3.7466666666666665E-005    -2.4468069978748934E-024
   3.7666666666666656E-005     1.0712087125355452E-024
   3.7866666666666661E-005     5.6595154477596645E-024
   3.8066666666666666E-005     1.0770792888652382E-023
   3.8266666666666657E-005     1.5556931893560300E-023
   3.8466666666666662E-005     1.8935234363580196E-023
   3.8666666666666667E-005     1.9724704746376921E-023
   3.8866666666666658E-005     1.6848866347281169E-023
   3.9066666666666663E-005     9.5870329508585984E-024
   3.9266666666666668E-005    -2.1597073619016785E-024
   3.9466666666666659E-005    -1.7635546790760855E-023
   3.9666666666666664E-005    -3.5087170374049501E-023
   3.9866666666666655E-005    -5.1769194356180807E-023
   4.0066666666666660E-005    -6.4146025408199654E-023
   4.0266666666666665E-005    -6.8315691077427787E-023
   4.0466666666666656E-005    -6.0646447784863626E-023
   4.0666666666666661E-005    -3.8572651904744418E-023
   4.0866666666666666E-005    -1.4483026829153817E-024
   4.1066666666666657E-005     4.8687487838490466E-023
   4.1266666666666662E-005     1.0660903435344302E-022
   4.1466666666666667E-005     1.6384885880809517E-022
   4.1666666666666658E-005     2.0924457389204082E-022
   4.1866666666666663E-005     2.3017896601168024E-022
   4.2066666666666668E-005     2.1450210581319292E-022
   4.2266666666666660E-005     1.5299098956160911E-022
   4.2466666666666664E-005     4.2054109027367752E-023
   4.2666666666666656E-005    -1.1375165420268309E-022
   4.2866666666666661E-005    -2.9992758505274942E-022
   4.3066666666666665E-005    -4.9153372788775676E-022
   4.3266666666666657E-005    -6.5449204812920021E-022
   4.3466666666666662E-005    -7.4902430204128577E-022
   4.3666666666666666E-005    -7.3526033937539323E-022
   4.3866666666666658E-005    -5.8065727602884382E-022
   4.4066666666666663E-005    -2.6841513454607599E-022
   4.4266666666666667E-005     1.9436976700225294E-022
   4.4466666666666659E-005     7.7042148570614428E-022
   4.4666666666666664E-005     1.3896340459402361E-021
   4.4866666666666655E-005     1.9516943090724851E-021
   4.5066666666666660E-005     2.3351430505235410E-021
   4.5266666666666665E-005     2.4132022752883310E-021
   4.5466666666666656E-005     2.0755319060984945E-021
   4.5666666666666661E-005     1.2537104290907056E-021
   4.5866666666666666E-005    -5.3142512414192513E-023
   4.6066666666666657E-005    -1.7573233651977263E-021
   4.6266666666666662E-005    -3.6713942734629663E-021
   4.6466666666666667E-005    -5.5120293256636704E-021
   4.6666666666666658E-005    -6.9227158497374383E-021
   4.6866666666666663E-005    -7.5168315352325525E-021
   4.7066666666666668E-005    -6.9392783387309175E-021
   4.7266666666666659E-005    -4.9408615880497862E-021
   4.7466666666666664E-005    -1.4554686417125490E-021
   4.7666666666666655E-005     3.3333631519781144E-021
   4.7866666666666660E-005     8.9519136660958671E-021
   4.8066666666666665E-005     1.4636930817979542E-020
   4.8266666666666656E-005     1.9389393075345457E-020
   4.8466666666666661E-005     2.2086967449000239E-020
   4.8666666666666666E-005     2.1651498290449370E-020
   4.8866666666666657E-005     1.7256608812725821E-020
   4.9066666666666662E-005     8.5488559304871903E-021
   4.9266666666666667E-005    -4.1541854616343518E-021
   4.9466666666666658E-005    -1.9731614154667267E-020
   4.9666666666666663E-005    -3.6235217955429723E-020
   4.9866666666666655E-005    -5.1008330752775720E-020
   5.0066666666666659E-005    -6.0965343960428692E-020
   5.0266666666666664E-005    -6.3025189941675473E-020
   5.0466666666666656E-005    -5.4662130471060163E-020
   5.0666666666666660E-005    -3.4505827830618981E-020
   5.0866666666666665E-005    -2.8956344165261480E-021
   5.1066666666666657E-005     3.7723078796579806E-020
   5.1266666666666661E-005     8.2673554585794584E-020
   5.1466666666666666E-005     1.2528666679046437E-019
   5.1666666666666658E-005     1.5755615116083095E-019
   5.1866666666666662E-005     1.7120019566562233E-019
   5.2066666666666667E-005     1.5904373406139672E-019
   5.2266666666666659E-005     1.1655675070625692E-019
   5.2466666666666664E-005     4.3314502300477365E-020
   5.2666666666666655E-005    -5.5898437723356422E-020
   5.2866666666666660E-005    -1.7062344570969593E-019
   5.3066666666666665E-005    -2.8514095117605986E-019
   5.3266666666666656E-005    -3.7990138240603798E-019
   5.3466666666666661E-005    -4.3396829547971721E-019
   5.3666666666666666E-005    -4.2828684462570979E-019
   5.3866666666666657E-005    -3.4940273090889679E-019
   5.4066666666666662E-005    -1.9308973016719801E-019
   5.4266666666666667E-005     3.2764444214050827E-020
   5.4466666666666658E-005     3.0668390001056460E-019
   5.4666666666666663E-005     5.9411679489405870E-019
   5.4866666666666668E-005     8.5029313992938763E-019
   5.5066666666666659E-005     1.0254625254565829E-018
   5.5266666666666664E-005     1.0721413910745486E-018
   5.5466666666666655E-005     9.5357553411268391E-019
   5.5666666666666660E-005     6.5224514100717444E-019
   5.5866666666666665E-005     1.7698184803881228E-019
   5.6066666666666656E-005    -4.3279578319080969E-019
   5.6266666666666661E-005    -1.1070444573933053E-018
   5.6466666666666666E-005    -1.7501353991177750E-018
   5.6666666666666657E-005    -2.2511731469101997E-018
   5.6866666666666662E-005    -2.4989554557883974E-018
   5.7066666666666667E-005    -2.4000341959006296E-018
   5.7266666666666658E-005    -1.8975167610863396E-018
   5.7466666666666663E-005    -9.8767379314643488E-019
   5.7666666666666654E-005     2.6879075573241093E-019
   5.7866666666666659E-005     1.7436657735255613E-018
   5.8066666666666664E-005     3.2484131017745517E-018
   5.8266666666666655E-005     4.5523776855637438E-018
   5.8466666666666660E-005     5.4111574320924298E-018
   5.8666666666666665E-005     5.6024782913515620E-018
   5.8866666666666656E-005     4.9652442687935679E-018
   5.9066666666666661E-005     3.4361640576130450E-018
   5.9266666666666666E-005     1.0777779601465076E-018
   5.9466666666666657E-005    -1.9080079104396443E-018
   5.9666666666666662E-005    -5.1854928596725613E-018
   5.9866666666666667E-005    -8.3122691586238794E-018
   6.0066666666666659E-005    -1.0787325953337778E-017
   6.0266666666666663E-005    -1.2116352789939406E-017
   6.0466666666666655E-005    -1.1887203017714902E-017
   6.0666666666666660E-005    -9.8458391810927320E-018
   6.0866666666666664E-005    -5.9614961900894934E-018
   6.1066666666666656E-005    -4.6967935129180831E-019
   6.1266666666666661E-005     6.1168213251763724E-018
   6.1466666666666665E-005     1.3035541618764772E-017
   6.1666666666666657E-005     1.9342551090753897E-017
   6.1866666666666662E-005     2.4017714830224821E-017
   6.2066666666666666E-005     2.6097667144639470E-017
   6.2266666666666658E-005     2.4821946245693611E-017
   6.2466666666666663E-005     1.9773778260621838E-017
   6.2666666666666668E-005     1.0995265159487142E-017
   6.2866666666666659E-005    -9.4272235788056747E-019
   6.3066666666666664E-005    -1.4932123045011276E-017
   6.3266666666666655E-005    -2.9391041349993554E-017
   6.3466666666666660E-005    -4.2401022164508400E-017
   6.3666666666666665E-005    -5.1911149670648863E-017
   6.3866666666666656E-005    -5.5992174528245206E-017
   6.4066666666666661E-005    -5.3115158560276651E-017
   6.4266666666666666E-005    -4.2422391429625670E-017
   6.4466666666666657E-005    -2.3954785781695165E-017
   6.4666666666666662E-005     1.2001494634259787E-018
   6.4866666666666667E-005     3.0870955033022294E-017
   6.5066666666666658E-005     6.1898241228953550E-017
   6.5266666666666663E-005     9.0373927390618135E-017
   6.5466666666666654E-005     1.1201808139223312E-016
   6.5666666666666659E-005     1.2266969700770079E-016
   6.5866666666666664E-005     1.1885038975135669E-016
   6.6066666666666655E-005     9.8343180343321208E-017
   6.6266666666666660E-005     6.0716525693036308E-017
   6.6466666666666665E-005     7.7170635892049478E-018
   6.6666666666666656E-005    -5.6544049495395188E-017
   6.6866666666666661E-005    -1.2567532057149049E-016
   6.7066666666666666E-005    -1.9140274826583047E-016
   6.7266666666666657E-005    -2.4429293319194341E-016
   6.7466666666666662E-005    -2.7477368915580894E-016
   6.7666666666666667E-005    -2.7437908337638981E-016
   6.7866666666666658E-005    -2.3710054366879909E-016
   6.8066666666666663E-005    -1.6068527318665615E-016
   6.8266666666666655E-005    -4.7695518786354726E-017
   6.8466666666666659E-005     9.3866378746868403E-017
   6.8666666666666664E-005     2.5054469492126273E-016
   6.8866666666666656E-005     4.0416109961951655E-016
   6.9066666666666660E-005     5.3334588158987454E-016
   6.9266666666666665E-005     6.1582514736774498E-016
   6.9466666666666657E-005     6.3130190950821649E-016
   6.9666666666666661E-005     5.6464944373283697E-016
   6.9866666666666666E-005     4.0902872987600506E-016
   7.0066666666666658E-005     1.6847098663246590E-016
   7.0266666666666662E-005    -1.4055225141924762E-016
   7.0466666666666654E-005    -4.8900238022764783E-016
   7.0666666666666659E-005    -8.3689701854658176E-016
   7.0866666666666664E-005    -1.1367956783706577E-015
   7.1066666666666655E-005    -1.3390111287103264E-015
   7.1266666666666660E-005    -1.3981263325263921E-015
   7.1466666666666665E-005    -1.2801231997126961E-015
   7.1666666666666656E-005    -9.6920869183325601E-016
   7.1866666666666661E-005    -4.7329335483688470E-016
   7.2066666666666666E-005     1.7291437329453218E-016
   7.2266666666666657E-005     9.0807024750974612E-016
   7.2466666666666662E-005     1.6481612243906431E-015
   7.2666666666666667E-005     2.2943576198897099E-015
   7.2866666666666658E-005     2.7442684863074488E-015
   7.3066666666666663E-005     2.9055441478034944E-015
   7.3266666666666654E-005     2.7102389004560226E-015
   7.3466666666666659E-005     2.1279929622721694E-015
   7.3666666666666664E-005     1.1759580269838347E-015
   7.3866666666666655E-005    -7.6440439706686365E-017
   7.4066666666666660E-005    -1.5093391993342556E-015
   7.4266666666666665E-005    -2.9615402138700427E-015
   7.4466666666666656E-005    -4.2465845971319349E-015
   7.4666666666666661E-005    -5.1744420490264267E-015
   7.4866666666666666E-005    -5.5764739206662228E-015
   7.5066666666666657E-005    -5.3305644888480907E-015
   7.5266666666666662E-005    -4.3829246501234060E-015
   7.5466666666666653E-005    -2.7631646840962092E-015