  -3.3333333333333335E-005     0.0000000000000000     
  -3.3133333333333337E-005     0.0000000000000000     
  -3.2933333333333332E-005     0.0000000000000000     
  -3.2733333333333334E-005     0.0000000000000000     
  -3.2533333333333336E-005     0.0000000000000000     
  -3.2333333333333338E-005     0.0000000000000000     
  -3.2133333333333333E-005     0.0000000000000000     
  -3.1933333333333335E-005     0.0000000000000000     
  -3.1733333333333337E-005     0.0000000000000000     
  -3.1533333333333332E-005     0.0000000000000000     
  -3.1333333333333334E-005     0.0000000000000000     
  -3.1133333333333336E-005     0.0000000000000000     
  -3.0933333333333338E-005     0.0000000000000000     
  -3.0733333333333333E-005    -5.0257701242367346E-041
  -3.0533333333333335E-005    -3.8301897101318816E-040
  -3.0333333333333337E-005     2.5311134399565013E-039
  -3.0133333333333335E-005     4.6876762529300316E-038
  -2.9933333333333334E-005     1.7132770533658897E-037
  -2.9733333333333336E-005    -2.6719183330833833E-037
  -2.9533333333333334E-005    -6.1470218492929094E-036
  -2.9333333333333336E-005    -3.2961138307592946E-035
  -2.9133333333333334E-005    -9.3371615387103874E-035
  -2.8933333333333336E-005    -6.8394892847343127E-035
  -2.8733333333333335E-005     7.1894471857149250E-034
  -2.8533333333333333E-005     4.1762956663206341E-033
  -2.8333333333333335E-005     1.2852310656741140E-032
  -2.8133333333333337E-005     2.2871964200899599E-032
  -2.7933333333333336E-005     9.4903180040216309E-034
  -2.7733333333333334E-005    -1.5780412029341330E-031
  -2.7533333333333336E-005    -6.5167273823004705E-031
  -2.7333333333333335E-005    -1.6234417281214512E-030
  -2.7133333333333333E-005    -2.5332523951705833E-030
  -2.6933333333333335E-005    -7.3911437572146721E-031
  -2.6733333333333337E-005     1.0379036020696739E-029
  -2.6533333333333336E-005     4.1380411455410139E-029
  -2.6333333333333334E-005     9.8786020179720346E-029
  -2.6133333333333336E-005     1.5984832050909211E-028
  -2.5933333333333335E-005     1.2430469575665509E-028
  -2.5733333333333333E-005    -2.4060588347801479E-028
  -2.5533333333333335E-005    -1.2937623398201658E-027
  -2.5333333333333337E-005    -3.3087656037833864E-027
  -2.5133333333333336E-005    -5.8666437089765904E-027
  -2.4933333333333334E-005    -6.7667143059153825E-027
  -2.4733333333333336E-005    -8.0765398307220891E-028
  -2.4533333333333334E-005     2.0313027933292957E-026
  -2.4333333333333333E-005     6.4560578920120682E-026
  -2.4133333333333335E-005     1.2955233476685635E-025
  -2.3933333333333337E-005     1.8459231644676364E-025
  -2.3733333333333335E-005     1.4949839432635906E-025
  -2.3533333333333334E-005    -1.1317088396417875E-025
  -2.3333333333333336E-005    -7.6083839263769301E-025
  -2.3133333333333338E-005    -1.8484968382660297E-024
  -2.2933333333333336E-005    -3.0979823340984489E-024
  -2.2733333333333335E-005    -3.6014174874378698E-024
  -2.2533333333333337E-005    -1.6291828941629591E-024
  -2.2333333333333335E-005     5.1199732678867399E-024
  -2.2133333333333334E-005     1.8372498924061604E-023
  -2.1933333333333336E-005     3.6889749138341806E-023
  -2.1733333333333338E-005     5.3037441608037438E-023
  -2.1533333333333336E-005     4.9667333134576837E-023
  -2.1333333333333335E-005     2.8366549744033910E-025
  -2.1133333333333337E-005    -1.2310097318797207E-022
  -2.0933333333333335E-005    -3.3012075286422941E-022
  -2.0733333333333334E-005    -5.7942720336180665E-022
  -2.0533333333333336E-005    -7.4098851897115558E-022
  -2.0333333333333337E-005    -5.7444313352068824E-022
  -2.0133333333333336E-005     2.4077994633651317E-022
  -1.9933333333333334E-005     1.9809323583501834E-021
  -1.9733333333333336E-005     4.6306893562469540E-021
  -1.9533333333333335E-005     7.5348031351930979E-021
  -1.9333333333333333E-005     9.0623909947032551E-021
  -1.9133333333333335E-005     6.5178717084429530E-021
  -1.8933333333333337E-005    -3.3656819314773210E-021
  -1.8733333333333336E-005    -2.3015591697070681E-020
  -1.8533333333333334E-005    -5.1564830590319929E-020
  -1.8333333333333336E-005    -8.1731185155723338E-020
  -1.8133333333333335E-005    -9.7201367212104906E-020
  -1.7933333333333337E-005    -7.2593726436459292E-020
  -1.7733333333333335E-005     2.1333988296265883E-020
  -1.7533333333333337E-005     2.0492023152422914E-019
  -1.7333333333333336E-005     4.6896902326826002E-019
  -1.7133333333333334E-005     7.5002253209579456E-019
  -1.6933333333333336E-005     9.1114288051629898E-019
  -1.6733333333333335E-005     7.4385456152874802E-019
  -1.6533333333333337E-005     1.0117439438938116E-020
  -1.6333333333333335E-005    -1.4605804875564288E-018
  -1.6133333333333337E-005    -3.6188536876224039E-018
  -1.5933333333333336E-005    -6.0156720562068927E-018
  -1.5733333333333334E-005    -7.6613244221639255E-018
  -1.5533333333333336E-005    -7.0270958298482145E-018
  -1.5333333333333334E-005    -2.3125224160014356E-018
  -1.5133333333333336E-005     7.9235496377066357E-018
  -1.4933333333333335E-005     2.3761213654893823E-017
  -1.4733333333333337E-005     4.2707948502593087E-017
  -1.4533333333333335E-005     5.8664484279847654E-017
  -1.4333333333333337E-005     6.1682054459662856E-017
  -1.4133333333333336E-005     3.9250802669103866E-017
  -1.3933333333333334E-005    -2.0246807828607262E-017
  -1.3733333333333336E-005    -1.2174479031620410E-016
  -1.3533333333333335E-005    -2.5606646740763901E-016
  -1.3333333333333337E-005    -3.9277346147204254E-016
  -1.3133333333333335E-005    -4.7647857096174812E-016
  -1.2933333333333337E-005    -4.3066747472705646E-016
  -1.2733333333333336E-005    -1.7287999738633147E-016
  -1.2533333333333338E-005     3.5677195510638038E-016
  -1.2333333333333336E-005     1.1556836006574164E-015
  -1.2133333333333335E-005     2.1151187893341952E-015
  -1.1933333333333337E-005     2.9870640357717917E-015
  -1.1733333333333335E-005     3.3810907932675756E-015
  -1.1533333333333337E-005     2.8120659433211461E-015
  -1.1333333333333336E-005     8.1395961428732254E-016
  -1.1133333333333337E-005    -2.8795934407457561E-015
  -1.0933333333333336E-005    -8.1109531163400388E-015
  -1.0733333333333334E-005    -1.4082757088734628E-014
  -1.0533333333333336E-005    -1.9231348249646899E-014
  -1.0333333333333335E-005    -2.1286048538896155E-014
  -1.0133333333333337E-005    -1.7603037062632802E-014
  -9.9333333333333354E-006    -5.8199567314096114E-015
  -9.7333333333333373E-006     1.5204044864491744E-014
  -9.5333333333333358E-006     4.4311695482781000E-014
  -9.3333333333333343E-006     7.7107972357624372E-014
  -9.1333333333333362E-006     1.0553214239976362E-013
  -8.9333333333333348E-006     1.1834826216259758E-013
  -8.7333333333333367E-006     1.0288066751406680E-013
  -8.5333333333333352E-006     4.8098088730586553E-014
  -8.3333333333333371E-006    -5.1213642208919515E-014
  -8.1333333333333356E-006    -1.8990793667098238E-013
  -7.9333333333333376E-006    -3.4873660761434980E-013
  -7.7333333333333361E-006    -4.9289882730662866E-013
  -7.5333333333333346E-006    -5.7438285601698594E-013
  -7.3333333333333365E-006    -5.3918294547591771E-013
  -7.1333333333333351E-006    -3.3955663213755712E-013
  -6.9333333333333370E-006     4.9875622654609808E-014
  -6.7333333333333355E-006     6.1498265432787923E-013
  -6.5333333333333374E-006     1.2881959551138692E-012
  -6.3333333333333359E-006     1.9429620155521478E-012
  -6.1333333333333379E-006     2.4015542454667231E-012
  -5.9333333333333364E-006     2.4596182259165579E-012
  -5.7333333333333349E-006     1.9276977708038225E-012
  -5.5333333333333368E-006     6.8560477142573334E-013
  -5.3333333333333354E-006    -1.2594062359140916E-012
  -5.1333333333333373E-006    -3.7240259116610263E-012
  -4.9333333333333358E-006    -6.3256160390075783E-012
  -4.7333333333333377E-006    -8.4992625592405062E-012
  -4.5333333333333362E-006    -9.5653122287651773E-012
  -4.3333333333333348E-006    -8.8485684331153579E-012
  -4.1333333333333367E-006    -5.8381445171413869E-012
  -3.9333333333333352E-006    -3.6361754044781140E-013
  -3.7333333333333371E-006     7.2484730422974362E-012
  -3.5333333333333356E-006     1.6080242233371886E-011
  -3.3333333333333376E-006     2.4631109290334233E-011
  -3.1333333333333361E-006     3.0958778512892416E-011
  -2.9333333333333346E-006     3.2960438167961475E-011
  -2.7333333333333365E-006     2.8772918983871312E-011
  -2.5333333333333384E-006     1.7238692927343187E-011
  -2.3333333333333336E-006    -1.6435837416155449E-012
  -2.1333333333333355E-006    -2.6382742474543136E-011
  -1.9333333333333374E-006    -5.3871971157949179E-011
  -1.7333333333333393E-006    -7.9557279656977895E-011
  -1.5333333333333345E-006    -9.7934784863453879E-011
  -1.3333333333333364E-006    -1.0335651186740540E-010
  -1.1333333333333383E-006    -9.1059741718169368E-011
  -9.3333333333333343E-007    -5.8275031084086023E-011
  -7.3333333333333535E-007    -5.2251173174842910E-012
  -5.3333333333333726E-007     6.4187463163371844E-011
  -3.3333333333333918E-007     1.4218633308427799E-010
  -1.3333333333333432E-007     2.1754768461022450E-010
   6.6666666666663770E-008     2.7668995350615711E-010
   2.6666666666666185E-007     3.0536915406619054E-010
   4.6666666666666672E-007     2.9082023733968145E-010
   6.6666666666666480E-007     2.2409801896371345E-010
   8.6666666666666289E-007     1.0231280028823454E-010
   1.0666666666666610E-006    -6.9567741405287461E-011
   1.2666666666666658E-006    -2.7766398067114839E-010
   1.4666666666666639E-006    -4.9914402520435035E-010
   1.6666666666666620E-006    -7.0338952735825144E-010
   1.8666666666666669E-006    -8.5446647400934478E-010
   2.0666666666666649E-006    -9.1488772586618366E-010
   2.2666666666666630E-006    -8.5052290877567872E-010
   2.4666666666666611E-006    -6.3635510575639657E-010
   2.6666666666666660E-006    -2.6260100014345298E-010
   2.8666666666666641E-006     2.5950010548458084E-010
   3.0666666666666622E-006     8.9313140951531525E-010
   3.2666666666666602E-006     1.5736600417382194E-009
   3.4666666666666651E-006     2.2098677307818300E-009
   3.6666666666666632E-006     2.6897104354684024E-009
   3.8666666666666613E-006     2.8913122248093604E-009
   4.0666666666666661E-006     2.6992668897992850E-009
   4.2666666666666642E-006     2.0253742251553492E-009
   4.4666666666666623E-006     8.3179363470695900E-010
   4.6666666666666604E-006    -8.4662547223855814E-010
   4.8666666666666652E-006    -2.8851026519395048E-009
   5.0666666666666633E-006    -5.0616165031361125E-009
   5.2666666666666614E-006    -7.0641653619249908E-009
   5.4666666666666663E-006    -8.5160573214627363E-009
   5.6666666666666644E-006    -9.0204189728178461E-009
   5.8666666666666624E-006    -8.2218675153875263E-009
   6.0666666666666605E-006    -5.8794337579072306E-009
   6.2666666666666654E-006    -1.9409020977467609E-009
   6.4666666666666635E-006     3.3944318070081405E-009
   6.6666666666666616E-006     9.6392008294309810E-009
   6.8666666666666664E-006     1.6021526264425740E-008
   7.0666666666666645E-006     2.1539048596267759E-008
   7.2666666666666626E-006     2.5067418635090990E-008
   7.4666666666666607E-006     2.5518333796418862E-008
   7.6666666666666655E-006     2.2032058362105821E-008
   7.8666666666666636E-006     1.4179356950920688E-008
   8.0666666666666617E-006     2.1399691493947707E-009
   8.2666666666666598E-006    -1.3179021143779871E-008
   8.4666666666666647E-006    -3.0119601634760061E-008
   8.6666666666666627E-006    -4.6370026456569790E-008
   8.8666666666666608E-006    -5.9193770271688829E-008
   9.0666666666666657E-006    -6.5780688432617331E-008
   9.2666666666666638E-006    -6.3687897167575918E-008
   9.4666666666666619E-006    -5.1315599694606538E-008
   9.6666666666666599E-006    -2.8345837168878596E-008
   9.8666666666666648E-006     3.9361941348830108E-009
   1.0066666666666663E-005     4.2514991840782381E-008
   1.0266666666666661E-005     8.2770972772379564E-008
   1.0466666666666666E-005     1.1888867955462720E-007
   1.0666666666666664E-005     1.4453451600216375E-007
   1.0866666666666662E-005     1.5374511951640495E-007
   1.1066666666666660E-005     1.4192279295672788E-007
   1.1266666666666665E-005     1.0679881569201478E-007
   1.1466666666666663E-005     4.9206770696933784E-008
   1.1666666666666661E-005    -2.6488270682044288E-008
   1.1866666666666666E-005    -1.1242962689374883E-007
   1.2066666666666664E-005    -1.9784943400496565E-007
   1.2266666666666662E-005    -2.7018746472078123E-007
   1.2466666666666660E-005    -3.1666228078389494E-007
   1.2666666666666665E-005    -3.2612617189083482E-007
   1.2866666666666663E-005    -2.9096648132920042E-007
   1.3066666666666661E-005    -2.0877492274676706E-007
   1.3266666666666666E-005    -8.3502341124778655E-008
   1.3466666666666664E-005     7.4145381624485164E-008
   1.3666666666666662E-005     2.4723362653702402E-007
   1.3866666666666660E-005     4.1409668734522335E-007
   1.4066666666666665E-005     5.5071844038324329E-007
   1.4266666666666663E-005     6.3376870040060501E-007
   1.4466666666666661E-005     6.4394466452591091E-007
   1.4666666666666666E-005     5.6918244352696549E-007
   1.4866666666666664E-005     4.0727185300425620E-007
   1.5066666666666662E-005     1.6743973438491468E-007
   1.5266666666666661E-005    -1.2943525055744551E-007
   1.5466666666666665E-005    -4.5215852716791676E-007
   1.5666666666666663E-005    -7.6209382426187010E-007
   1.5866666666666662E-005    -1.0173526914750466E-006
   1.6066666666666660E-005    -1.1778754794276725E-006
   1.6266666666666665E-005    -1.2108236836817505E-006
   1.6466666666666663E-005    -1.0956094940349918E-006
   1.6666666666666661E-005    -8.2787698808861278E-007
   1.6866666666666666E-005    -4.2183016142829984E-007
   1.7066666666666664E-005     8.9535281430986908E-008
   1.7266666666666662E-005     6.5650831423001970E-007
   1.7466666666666660E-005     1.2169846111809742E-006
   1.7666666666666665E-005     1.7026937911050974E-006
   1.7866666666666663E-005     2.0467344562003990E-006
   1.8066666666666661E-005     2.1916220766130621E-006
   1.8266666666666666E-005     2.0969496065427609E-006
   1.8466666666666664E-005     1.7457429548101767E-006
   1.8666666666666662E-005     1.1486941388107630E-006
   1.8866666666666660E-005     3.4564198597682673E-007
   1.9066666666666665E-005    -5.9606299882157805E-007
   1.9266666666666663E-005    -1.5863546716050835E-006
   1.9466666666666661E-005    -2.5201258615972763E-006
   1.9666666666666666E-005    -3.2871809368358978E-006
   1.9866666666666664E-005    -3.7836043902242576E-006
   2.0066666666666662E-005    -3.9234880709841455E-006
   2.0266666666666660E-005    -3.6498604273318312E-006
   2.0466666666666665E-005    -2.9436617568097436E-006
   2.0666666666666663E-005    -1.8297112834473583E-006
   2.0866666666666661E-005    -3.7881118904821451E-007
   2.1066666666666659E-005     1.2945808479073238E-006
   2.1266666666666664E-005     3.0393210913984394E-006
   2.1466666666666662E-005     4.6790039677787715E-006
   2.1666666666666660E-005     6.0272094908706228E-006
   2.1866666666666665E-005     6.9055327710537677E-006
   2.2066666666666663E-005     7.1629501139426778E-006
   2.2266666666666661E-005     6.6947765352857084E-006
   2.2466666666666659E-005     5.4592603119678801E-006
   2.2666666666666664E-005     3.4898314928768573E-006
   2.2866666666666662E-005     9.0115419092826362E-007
   2.3066666666666660E-005    -2.1124953454836626E-006
   2.3266666666666665E-005    -5.2874216692994754E-006
   2.3466666666666663E-005    -8.3094288633157788E-006
   2.3666666666666661E-005    -1.0840654602182567E-005
   2.3866666666666660E-005    -1.2552562063734159E-005
   2.4066666666666664E-005    -1.3162340564759252E-005
   2.4266666666666662E-005    -1.2469206172174722E-005
   2.4466666666666661E-005    -1.0386529813295751E-005
   2.4666666666666665E-005    -6.9656364929228192E-006
   2.4866666666666663E-005    -2.4074376617354611E-006
   2.5066666666666662E-005     2.9410434858064825E-006
   2.5266666666666660E-005     8.6068660460747274E-006
   2.5466666666666665E-005     1.4027942707169483E-005
   2.5666666666666663E-005     1.8604263233487796E-005
   2.5866666666666661E-005     2.1759475997027699E-005
   2.6066666666666666E-005     2.3006958816281962E-005
   2.6266666666666664E-005     2.2013271330694370E-005
   2.6466666666666662E-005     1.8651311560891020E-005
   2.6666666666666660E-005     1.3035856965024547E-005
   2.6866666666666665E-005     5.5354283662367171E-006
   2.7066666666666663E-005    -3.2434118910843410E-006
   2.7266666666666661E-005    -1.2500329704697909E-005
   2.7466666666666666E-005    -2.1311736500109953E-005
   2.7666666666666664E-005    -2.8721829736838463E-005
   2.7866666666666662E-005    -3.3845463092322815E-005
   2.8066666666666667E-005    -3.5971843786123233E-005
   2.8266666666666658E-005    -3.4656992193895893E-005
   2.8466666666666663E-005    -2.9793180823811041E-005
   2.8666666666666668E-005    -2.1645312129228802E-005
   2.8866666666666659E-005    -1.0847372356103690E-005
   2.9066666666666664E-005     1.6437051482450022E-006
   2.9266666666666669E-005     1.4634363818506770E-005
   2.9466666666666660E-005     2.6813698573622196E-005
   2.9666666666666665E-005     3.6893707019618911E-005
   2.9866666666666656E-005     4.3755296741833590E-005
   3.0066666666666661E-005     4.6583007087922721E-005
   3.0266666666666666E-005     4.4971555096029865E-005
   3.0466666666666657E-005     3.8989748419396934E-005
   3.0666666666666662E-005     2.9191460899099368E-005
   3.0866666666666667E-005     1.6569179482616402E-005
   3.1066666666666658E-005     2.4525141556049624E-006
   3.1266666666666663E-005    -1.1639070525254685E-005
   3.1466666666666668E-005    -2.4173785928889975E-005
   3.1666666666666659E-005    -3.3794930789864179E-005
   3.1866666666666664E-005    -3.9495341207899243E-005
   3.2066666666666656E-005    -4.0756054961082290E-005
   3.2266666666666660E-005    -3.7629356440664868E-005
   3.2466666666666665E-005    -3.0751932242874792E-005
   3.2666666666666657E-005    -2.1281750303727082E-005
   3.2866666666666661E-005    -1.0761339979989556E-005
   3.3066666666666666E-005    -9.1977178530863138E-007
   3.3266666666666658E-005     6.5655761590985217E-006
   3.3466666666666662E-005     1.0319746774874761E-005
   3.3666666666666667E-005     9.5014749455347536E-006
   3.3866666666666659E-005     3.9828116852762599E-006
   3.4066666666666664E-005    -5.5515418688304878E-006
   3.4266666666666668E-005    -1.7606580811417902E-005
   3.4466666666666660E-005    -2.9991735389423420E-005
   3.4666666666666665E-005    -4.0045812869533159E-005
   3.4866666666666656E-005    -4.4956220580789495E-005
   3.5066666666666661E-005    -4.2143182411070752E-005
   3.5266666666666666E-005    -2.9668340329252574E-005
   3.5466666666666657E-005    -6.6200031596163684E-006
   3.5666666666666662E-005     2.6575878310543933E-005
   3.5866666666666667E-005     6.7966879703061311E-005
   3.6066666666666658E-005     1.1404663501384226E-004
   3.6266666666666663E-005     1.5991433606747136E-004
   3.6466666666666668E-005     1.9962806046877607E-004
   3.6666666666666659E-005     2.2673797832436216E-004
   3.6866666666666664E-005     2.3496359699640810E-004
   3.7066666666666669E-005     2.1895863663782026E-004
   3.7266666666666660E-005     1.7509065484833764E-004
   3.7466666666666665E-005     1.0215153200020824E-004
   3.7666666666666656E-005     1.9119357031608438E-006
   3.7866666666666661E-005    -1.2056129046679519E-004
   3.8066666666666666E-005    -2.5689152683569413E-004
   3.8266666666666657E-005    -3.9572667658867842E-004
   3.8466666666666662E-005    -5.2343334596771781E-004
   3.8666666666666667E-005    -6.2513040216294140E-004
   3.8866666666666658E-005    -6.8600193039039981E-004
   3.9066666666666663E-005    -6.9279622945034552E-004
   3.9266666666666668E-005    -6.3538585189634614E-004
   3.9466666666666659E-005    -5.0824298920620729E-004
   3.9666666666666664E-005    -3.1167411765357342E-004
   3.9866666666666655E-005    -5.2661938116825720E-005
   4.0066666666666660E-005     2.5481764131776784E-004
   4.0266666666666665E-005     5.9010294828303078E-004
   4.0466666666666656E-005     9.2682956466672364E-004
   4.0666666666666661E-005     1.2345828412263220E-003
   4.0866666666666666E-005     1.4811492918471530E-003
   4.1066666666666657E-005     1.6352340053290778E-003
   4.1266666666666662E-005     1.6694481146401336E-003
   4.1466666666666667E-005     1.5633251913571562E-003
   4.1666666666666658E-005     1.3060931158911456E-003
   4.1866666666666663E-005     8.9891789625023955E-004
   4.2066666666666668E-005     3.5635180306876999E-004
   4.2266666666666660E-005    -2.9323986359644472E-004
   4.2466666666666664E-005    -1.0084329732371947E-003
   4.2666666666666656E-005    -1.7367492512030782E-003
   4.2866666666666661E-005    -2.4178774687697458E-003
   4.3066666666666665E-005    -2.9879627832940349E-003
   4.3266666666666657E-005    -3.3847057172016878E-003
   4.3466666666666662E-005    -3.5529100513948348E-003
   4.3666666666666666E-005    -3.4500439839350292E-003
   4.3866666666666658E-005    -3.0513279853910833E-003
   4.4066666666666663E-005    -2.3538587644095065E-003
   4.4266666666666667E-005    -1.3793092125600906E-003
   4.4466666666666659E-005    -1.7482560914488989E-004
   4.4666666666666664E-005     1.1881381488689936E-003
   4.4866666666666655E-005     2.6171575032419726E-003
   4.5066666666666660E-005     4.0042731236363122E-003
   4.5266666666666665E-005     5.2332713671332347E-003
   4.5466666666666656E-005     6.1883714010422175E-003
   4.5666666666666661E-005     6.7637211925056515E-003
   4.5866666666666666E-005     6.8729887484468124E-003
   4.6066666666666657E-005     6.4582573690714976E-003
   4.6266666666666662E-005     5.4974338258216614E-003
   4.6466666666666667E-005     4.0094305431004141E-003
   4.6666666666666658E-005     2.0565061426310862E-003
   4.6866666666666663E-005    -2.5666072122550502E-004
   4.7066666666666668E-005    -2.7873620264857115E-003
   4.7266666666666659E-005    -5.3626449776837080E-003
   4.7466666666666664E-005    -7.7901387500128108E-003
   4.7666666666666655E-005    -9.8712999094164207E-003
   4.7866666666666660E-005    -1.1416225814452872E-002
   4.8066666666666665E-005    -1.2258985637205910E-002
   4.8266666666666656E-005    -1.2272307766102605E-002
   4.8466666666666661E-005    -1.1380446379345446E-002
   4.8666666666666666E-005    -9.5690978786395677E-003
   4.8866666666666657E-005    -6.8913866839547273E-003
   4.9066666666666662E-005    -3.4692024046849364E-003
   4.9266666666666667E-005     5.1054925712593871E-004
   4.9466666666666658E-005     4.8048362056078179E-003
   4.9666666666666663E-005     9.1282177361226690E-003
   4.9866666666666655E-005     1.3170673574940344E-002
   5.0066666666666659E-005     1.6618500823611111E-002
   5.0266666666666664E-005     1.9176919859572591E-002
   5.0466666666666656E-005     2.0592829265258301E-002
   5.0666666666666660E-005     2.0676058535375262E-002
   5.0866666666666665E-005     1.9317463472264797E-002
   5.1066666666666657E-005     1.6502343140703792E-002
   5.1266666666666661E-005     1.2317940851080634E-002
   5.1466666666666666E-005     6.9541080467721145E-003
   5.1666666666666658E-005     6.9669441710005098E-004
   5.1866666666666662E-005    -6.0863018794182220E-003
   5.2066666666666667E-005    -1.2965239211156509E-002
   5.2266666666666659E-005    -1.9474934179059020E-002
   5.2466666666666664E-005    -2.5144800292178585E-002
   5.2666666666666655E-005    -2.9531137581479742E-002
   5.2866666666666660E-005    -3.2249400744228676E-002
   5.3066666666666665E-005    -3.3004197214434178E-002
   5.3266666666666656E-005    -3.1614786265229455E-002
   5.3466666666666661E-005    -2.8034081292529728E-002
   5.3666666666666666E-005    -2.2359500913051715E-002
   5.3866666666666657E-005    -1.4834515348417681E-002
   5.4066666666666662E-005    -5.8403330014855058E-003
   5.4266666666666667E-005     4.1221752621433527E-003
   5.4466666666666658E-005     1.4459540045610588E-002
   5.4666666666666663E-005     2.4520304463486027E-002
   5.4866666666666668E-005     3.3635179220866847E-002
   5.5066666666666659E-005     4.1160276265245793E-002
   5.5266666666666664E-005     4.6520643045821958E-002
   5.5466666666666655E-005     4.9251199059011964E-002
   5.5666666666666660E-005     4.9032244127191461E-002
   5.5866666666666665E-005     4.5716985231628468E-002
   5.6066666666666656E-005     3.9348930762316506E-002
   5.6266666666666661E-005     3.0167657636047399E-002
   5.6466666666666666E-005     1.8602153393645179E-002
   5.6666666666666657E-005     5.2516977185811907E-003
   5.6866666666666662E-005    -9.1448772943672242E-003
   5.7066666666666667E-005    -2.3749969441567979E-002
   5.7266666666666658E-005    -3.7675736959909931E-002
   5.7466666666666663E-005    -5.0037545469382320E-002
   5.7666666666666654E-005    -6.0009048965314137E-002
   5.7866666666666659E-005    -6.6875517033189960E-002
   5.8066666666666664E-005    -7.0081972464795000E-002
   5.8266666666666655E-005    -6.9272989751335307E-002
   5.8466666666666660E-005    -6.4321433369186887E-002
   5.8666666666666665E-005    -5.5344101142141854E-002
   5.8866666666666656E-005    -4.2702914704139713E-002
   5.9066666666666661E-005    -2.6991262689008644E-002
   5.9266666666666666E-005    -9.0059820282512131E-003
   5.9466666666666657E-005     1.0293680574183811E-002
   5.9666666666666662E-005     2.9837896021399517E-002
   5.9866666666666667E-005     4.8506024541532092E-002
   6.0066666666666659E-005     6.5190867761839383E-002
   6.0266666666666663E-005     7.8863657144738780E-002
   6.0466666666666655E-005     8.8635996513654891E-002
   6.0666666666666660E-005     9.3814947910056470E-002
   6.0866666666666664E-005     9.3948006777141199E-002
   6.1066666666666656E-005     8.8855099412402563E-002
   6.1266666666666661E-005     7.8645591239691726E-002
   6.1466666666666665E-005     6.3719033330434854E-002
   6.1666666666666657E-005     4.4749452829264076E-002
   6.1866666666666662E-005     2.2653807894571321E-002
   6.2066666666666666E-005    -1.4537841225496125E-003
   6.2266666666666658E-005    -2.6319642253686000E-002
   6.2466666666666663E-005    -5.0616824655350993E-002
   6.2666666666666668E-005    -7.3016538560706432E-002
   6.2866666666666659E-005    -9.2260771381406093E-002
   6.3066666666666664E-005   -0.10723207136204452     
   6.3266666666666655E-005   -0.11701668687272226     
   6.3466666666666660E-005   -0.12095752216386484     
   6.3666666666666665E-005   -0.11869393857045721     
   6.3866666666666656E-005   -0.11018609839645344     
   6.4066666666666661E-005    -9.5722487056621841E-002
   6.4266666666666666E-005    -7.5909983388168095E-002
   6.4466666666666657E-005    -5.1646909670144833E-002
   6.4666666666666662E-005    -2.4080353617582519E-002
   6.4866666666666667E-005     5.4501330547802318E-003
   6.5066666666666658E-005     3.5479561765948686E-002
   6.5266666666666663E-005     6.4491831152444515E-002
   6.5466666666666654E-005     9.0997512882218440E-002
   6.5666666666666659E-005    0.11361103589208513     
   6.5866666666666664E-005    0.13112323294462747     
   6.6066666666666655E-005    0.14256543460505636     
   6.6266666666666660E-005    0.14726171105576319     
   6.6466666666666665E-005    0.14486640469406700     
   6.6666666666666656E-005    0.13538495546608834     
   6.6866666666666661E-005    0.11917682048098061     
   6.7066666666666666E-005     9.6940112917961452E-002
   6.7266666666666657E-005     6.9678795437562807E-002
   6.7466666666666662E-005     3.8653889938060008E-002
   6.7666666666666667E-005     5.3212363940927116E-003
   6.7866666666666658E-005    -2.8741040416672976E-002
   6.8066666666666663E-005    -6.1911656865355796E-002
   6.8266666666666655E-005    -9.2607663632388315E-002
   6.8466666666666659E-005   -0.11936415445918250     
   6.8666666666666664E-005   -0.14090793008423183     
   6.8866666666666656E-005   -0.15622113704696652     
   6.9066666666666660E-005   -0.16459160035410292     
   6.9266666666666665E-005   -0.16564699982545544     
   6.9466666666666657E-005   -0.15937118838784986     
   6.9666666666666661E-005   -0.14610163330491255     
   6.9866666666666666E-005   -0.12650822999310191     
   7.0066666666666658E-005   -0.10155459048655660     
   7.0266666666666662E-005    -7.2444044590116427E-002
   7.0466666666666654E-005    -4.0553371539465859E-002
   7.0666666666666659E-005    -7.3580480413756432E-003
   7.0866666666666664E-005     2.5646735786674861E-002
   7.1066666666666655E-005     5.7024752807821044E-002
   7.1266666666666660E-005     8.5472508809507963E-002
   7.1466666666666665E-005    0.10988390385644747     
   7.1666666666666656E-005    0.12940194523486584     
   7.1866666666666661E-005    0.14345464580912240     
   7.2066666666666666E-005    0.15177297225957900     
   7.2266666666666657E-005    0.15439002514843930     
   7.2466666666666662E-005    0.15162162781538624     
   7.2666666666666667E-005    0.14402982157249283     
   7.2866666666666658E-005    0.13237180267376705     
   7.3066666666666663E-005    0.11753776123803722     
   7.3266666666666654E-005    0.10048187340988368     
   7.3466666666666659E-005     8.2151165678666954E-002
   7.3666666666666664E-005     6.3417115359946083E-002
   7.3866666666666655E-005     4.5014724775211470E-002
   7.4066666666666660E-005     2.7493328512062529E-002
   7.4266666666666665E-005     1.1182687448850044E-002
   7.4466666666666656E-005    -3.8231240470488568E-003
   7.4666666666666661E-005    -1.7662623554050169E-002
   7.4866666666666666E-005    -3.0684527613168103E-002
   7.5066666666666657E-005    -4.3407215841277116E-002
   7.5266666666666662E-005    -5.6462452093828684E-002
   7.5466666666666653E-005    -7.0526778265009707E-002