  -3.3333333333333335E-005     0.0000000000000000     
  -3.3133333333333337E-005     0.0000000000000000     
  -3.2933333333333332E-005     0.0000000000000000     
  -3.2733333333333334E-005     0.0000000000000000     
  -3.2533333333333336E-005     0.0000000000000000     
  -3.2333333333333338E-005     0.0000000000000000     
  -3.2133333333333333E-005     0.0000000000000000     
  -3.1933333333333335E-005     0.0000000000000000     
  -3.1733333333333337E-005     0.0000000000000000     
  -3.1533333333333332E-005     0.0000000000000000     
  -3.1333333333333334E-005     0.0000000000000000     
  -3.1133333333333336E-005     0.0000000000000000     
  -3.0933333333333338E-005     0.0000000000000000     
  -3.0733333333333333E-005     0.0000000000000000     
  -3.0533333333333335E-005     0.0000000000000000     
  -3.0333333333333337E-005     0.0000000000000000     
  -3.0133333333333335E-005     0.0000000000000000     
  -2.9933333333333334E-005    -3.0406373980399225E-040
  -2.9733333333333336E-005    -4.6023004722615658E-039
  -2.9533333333333334E-005    -5.3595791450981972E-040
  -2.9333333333333336E-005     4.2310316639997179E-037
  -2.9133333333333334E-005     5.4240488577774317E-036
  -2.8933333333333336E-005     4.2966974290849299E-035
  -2.8733333333333335E-005     2.5325214881255116E-034
  -2.8533333333333333E-005     1.1800058959981708E-033
  -2.8333333333333335E-005     4.4056058533477402E-033
  -2.8133333333333337E-005     1.2763668179446541E-032
  -2.7933333333333336E-005     2.4402087659018326E-032
  -2.7733333333333334E-005    -2.1216155975639617E-033
  -2.7533333333333336E-005    -2.7676607189196155E-031
  -2.7333333333333335E-005    -1.5336519871927129E-030
  -2.7133333333333333E-005    -5.7554314473576310E-030
  -2.6933333333333335E-005    -1.7017062127264517E-029
  -2.6733333333333337E-005    -4.0539070282766130E-029
  -2.6533333333333336E-005    -7.3637936636681266E-029
  -2.6333333333333334E-005    -7.4082112943083850E-029
  -2.6133333333333336E-005     1.1718770223124290E-028
  -2.5933333333333335E-005     9.1409553748684662E-028
  -2.5733333333333333E-005     3.1317760145899113E-027
  -2.5533333333333335E-005     7.8868528258032988E-027
  -2.5333333333333337E-005     1.5589179882588299E-026
  -2.5133333333333336E-005     2.2808496166689664E-026
  -2.4933333333333334E-005     1.5565860048409738E-026
  -2.4733333333333336E-005    -4.1061180836830701E-026
  -2.4533333333333334E-005    -2.1198775106765675E-025
  -2.4333333333333333E-005    -5.8334055676321679E-025
  -2.4133333333333335E-005    -1.2015334434288512E-024
  -2.3933333333333337E-005    -1.9096968416851370E-024
  -2.3733333333333335E-005    -2.0402854870015722E-024
  -2.3533333333333334E-005    -2.2095036297314937E-027
  -2.3333333333333336E-005     6.9932475153536134E-024
  -2.3133333333333338E-005     2.2463654556890211E-023
  -2.2933333333333336E-005     4.8412244766814422E-023
  -2.2733333333333335E-005     8.0103539177323040E-023
  -2.2533333333333337E-005     9.7374665437291797E-023
  -2.2333333333333335E-005     5.4522911314357235E-023
  -2.2133333333333334E-005    -1.2415354063094047E-022
  -2.1933333333333336E-005    -5.2899351758069867E-022
  -2.1733333333333338E-005    -1.2095685049533218E-021
  -2.1533333333333336E-005    -2.0610812216209411E-021
  -2.1333333333333335E-005    -2.6555514112761592E-021
  -2.1133333333333337E-005    -2.0721998636381138E-021
  -2.0933333333333335E-005     1.1344058564063363E-021
  -2.0733333333333334E-005     8.5937836499723637E-021
  -2.0533333333333336E-005     2.1123572518049511E-020
  -2.0333333333333337E-005     3.6899279115215248E-020
  -2.0133333333333336E-005     4.8995945463437328E-020
  -1.9933333333333334E-005     4.3261161653411066E-020
  -1.9733333333333336E-005    -1.4724358441640057E-021
  -1.9533333333333335E-005    -1.0786207164732338E-019
  -1.9333333333333333E-005    -2.8615498016541621E-019
  -1.9133333333333335E-005    -5.1078488418838805E-019
  -1.8933333333333337E-005    -6.9142649463344186E-019
  -1.8733333333333336E-005    -6.5105395248345879E-019
  -1.8533333333333334E-005    -1.3403728540885338E-019
  -1.8333333333333336E-005     1.1249272923020939E-018
  -1.8133333333333335E-005     3.2432864685940460E-018
  -1.7933333333333337E-005     5.9406394412615377E-018
  -1.7733333333333335E-005     8.2452289612314180E-018
  -1.7533333333333337E-005     8.2865531505940369E-018
  -1.7333333333333336E-005     3.3932990920151834E-018
  -1.7133333333333334E-005    -9.2290199107433424E-018
  -1.6933333333333336E-005    -3.1013003834827938E-017
  -1.6733333333333335E-005    -5.9733099369855612E-017
  -1.6533333333333337E-005    -8.6845355196607564E-017
  -1.6333333333333335E-005    -9.5559801148295225E-017
  -1.6133333333333337E-005    -6.1426240974336642E-017
  -1.5933333333333336E-005     4.2400639894198541E-017
  -1.5733333333333334E-005     2.3344578738611476E-016
  -1.5533333333333336E-005     5.0165475098273472E-016
  -1.5333333333333334E-005     7.8775255279125136E-016
  -1.5133333333333336E-005     9.6595529706458949E-016
  -1.4933333333333335E-005     8.4352748781159570E-016
  -1.4733333333333337E-005     1.9245323766100396E-016
  -1.4533333333333335E-005    -1.1737496691299178E-015
  -1.4333333333333337E-005    -3.2753435265629948E-015
  -1.4133333333333336E-005    -5.8111725265390728E-015
  -1.3933333333333334E-005    -8.0186538103010352E-015
  -1.3733333333333336E-005    -8.6247566822190128E-015
  -1.3533333333333335E-005    -5.9833492685460818E-015
  -1.3333333333333337E-005     1.5134323523850012E-015
  -1.3133333333333335E-005     1.4714236649552577E-014
  -1.2933333333333337E-005     3.2748770155245699E-014
  -1.2733333333333336E-005     5.2054427779801192E-014
  -1.2533333333333338E-005     6.5784821105619105E-014
  -1.2333333333333336E-005     6.4122217221500600E-014
  -1.2133333333333335E-005     3.6015184152555233E-014
  -1.1933333333333337E-005    -2.7351324319431206E-014
  -1.1733333333333335E-005    -1.2752839212236578E-013
  -1.1533333333333337E-005    -2.5312590206208403E-013
  -1.1333333333333336E-005    -3.7524690129206290E-013
  -1.1133333333333337E-005    -4.4650924381102653E-013
  -1.0933333333333336E-005    -4.0634014144730078E-013
  -1.0733333333333334E-005    -1.9454784580740233E-013
  -1.0533333333333336E-005     2.2668275871532551E-013
  -1.0333333333333335E-005     8.4524016101405751E-013
  -1.0133333333333337E-005     1.5725893406338621E-012
  -9.9333333333333354E-006     2.2284081744546731E-012
  -9.7333333333333373E-006     2.5482401354412405E-012
  -9.5333333333333358E-006     2.2245931992599267E-012
  -9.3333333333333343E-006     9.8597170378941401E-013
  -9.1333333333333362E-006    -1.2923915035682269E-012
  -8.9333333333333348E-006    -4.4665237932182152E-012
  -8.7333333333333367E-006    -8.0253556876724364E-012
  -8.5333333333333352E-006    -1.1060945108574898E-011
  -8.3333333333333371E-006    -1.2351939354653870E-011
  -8.1333333333333356E-006    -1.0589686999042531E-011
  -7.9333333333333376E-006    -4.7439966579542928E-012
  -7.7333333333333361E-006     5.4811211032888639E-012
  -7.5333333333333346E-006     1.9203376737094866E-011
  -7.3333333333333365E-006     3.4074300686146007E-011
  -7.1333333333333351E-006     4.6307623866505435E-011
  -6.9333333333333370E-006     5.1155511499702717E-011
  -6.7333333333333355E-006     4.3882544141787704E-011
  -6.5333333333333374E-006     2.1155292810608580E-011
  -6.3333333333333359E-006    -1.7394946501561271E-011
  -6.1333333333333379E-006    -6.7829341206870931E-011
  -5.9333333333333364E-006    -1.2126251507054929E-010
  -5.7333333333333349E-006    -1.6439002326456628E-010
  -5.5333333333333368E-006    -1.8147864139816842E-010
  -5.3333333333333354E-006    -1.5779852695970772E-010
  -5.1333333333333373E-006    -8.4050154066363300E-011
  -4.9333333333333358E-006     3.9106665003806047E-011
  -4.7333333333333377E-006     1.9765819299399586E-010
  -4.5333333333333362E-006     3.6331485281874259E-010
  -4.3333333333333348E-006     4.9615460799303696E-010
  -4.1333333333333367E-006     5.5128705065598106E-010
  -3.9333333333333352E-006     4.8902103601305791E-010
  -3.7333333333333371E-006     2.8689216737622686E-010
  -3.5333333333333356E-006    -4.9115795035248030E-011
  -3.3333333333333376E-006    -4.7740479470735672E-010
  -3.1333333333333361E-006    -9.2076483306806257E-010
  -2.9333333333333346E-006    -1.2756299294293392E-009
  -2.7333333333333365E-006    -1.4307839144196985E-009
  -2.5333333333333384E-006    -1.2932489503523412E-009
  -2.3333333333333336E-006    -8.1656968438260764E-010
  -2.1333333333333355E-006    -2.4796690320328170E-011
  -1.9333333333333374E-006     9.7514782984061195E-010
  -1.7333333333333393E-006     1.9988748417638528E-009
  -1.5333333333333345E-006     2.8107780591234563E-009
  -1.3333333333333364E-006     3.1695575466241543E-009
  -1.1333333333333383E-006     2.8860827029854235E-009
  -9.3333333333333343E-007     1.8818581197512497E-009
  -7.3333333333333535E-007     2.3344898986159956E-010
  -5.3333333333333726E-007    -1.8115322234912169E-009
  -3.3333333333333918E-007    -3.8572654547433502E-009
  -1.3333333333333432E-007    -5.4242294834917181E-009
   6.6666666666663770E-008    -6.0482653872254776E-009
   2.6666666666666185E-007    -5.3968242000620655E-009
   4.6666666666666672E-007    -3.3770422572049715E-009
   6.6666666666666480E-007    -2.0700974147563083E-010
   8.6666666666666289E-007     3.5750535949310301E-009
   1.0666666666666610E-006     7.1785970417618782E-009
   1.2666666666666658E-006     9.7041849908667331E-009
   1.4666666666666639E-006     1.0342128228667443E-008
   1.6666666666666620E-006     8.5880395409847611E-009
   1.8666666666666669E-006     4.4254509594642670E-009
   2.0666666666666649E-006    -1.5759683936501950E-009
   2.2666666666666630E-006    -8.2870057955456508E-009
   2.4666666666666611E-006    -1.4187679605305371E-008
   2.6666666666666660E-006    -1.7663878220870319E-008
   2.8666666666666641E-006    -1.7383498248096854E-008
   3.0666666666666622E-006    -1.2675286807153777E-008
   3.2666666666666602E-006    -3.8187618664560597E-009
   3.4666666666666651E-006     7.8416254977588829E-009
   3.6666666666666632E-006     2.0018014255252511E-008
   3.8666666666666613E-006     2.9850218034668525E-008
   4.0666666666666661E-006     3.4482583959524754E-008
   4.2666666666666642E-006     3.1745779126216681E-008
   4.4666666666666623E-006     2.0799829955244658E-008
   4.6666666666666604E-006     2.5790476936884496E-009
   4.8666666666666652E-006    -2.0100924635953748E-008
   5.0666666666666633E-006    -4.2857723771136664E-008
   5.2666666666666614E-006    -6.0476939632032199E-008
   5.4666666666666663E-006    -6.7966679282472931E-008
   5.6666666666666644E-006    -6.1740576302553148E-008
   5.8666666666666624E-006    -4.0676746317807522E-008
   6.0666666666666605E-006    -6.7887544463568343E-009
   6.2666666666666654E-006     3.4707448830628730E-008
   6.4666666666666635E-006     7.6041229581560933E-008
   6.6666666666666616E-006     1.0821303294184962E-007
   6.8666666666666664E-006     1.2280123856117005E-007
   7.0666666666666645E-006     1.1391391672781590E-007
   7.2666666666666626E-006     7.9867331526251385E-008
   7.4666666666666607E-006     2.4174425538200399E-008
   7.6666666666666655E-006    -4.4476301447194142E-008
   7.8666666666666636E-006    -1.1338844054158534E-007
   8.0666666666666617E-006    -1.6806954167070935E-007
   8.2666666666666598E-006    -1.9513679506507019E-007
   8.4666666666666647E-006    -1.8536432717854159E-007
   8.6666666666666627E-006    -1.3621618491744027E-007
   8.8666666666666608E-006    -5.3239394582957606E-008
   9.0666666666666657E-006     5.0133409132335992E-008
   9.2666666666666638E-006     1.5452482545799340E-007
   9.4666666666666619E-006     2.3808174502244116E-007
   9.6666666666666599E-006     2.8089267292757342E-007
   9.8666666666666648E-006     2.6949506086591892E-007
   1.0066666666666663E-005     2.0049500285852009E-007
   1.0266666666666661E-005     8.2406107164232007E-008
   1.0466666666666666E-005    -6.4892706046183641E-008
   1.0666666666666664E-005    -2.1322181989588672E-007
   1.0866666666666662E-005    -3.3128893131568117E-007
   1.1066666666666660E-005    -3.9109106981582577E-007
   1.1266666666666665E-005    -3.7425906269154332E-007
   1.1466666666666663E-005    -2.7695393706432203E-007
   1.1666666666666661E-005    -1.1210190496424262E-007
   1.1866666666666666E-005     9.1781397147049662E-008
   1.2066666666666664E-005     2.9525133272956977E-007
   1.2266666666666662E-005     4.5539510464319615E-007
   1.2466666666666660E-005     5.3472870119064591E-007
   1.2666666666666665E-005     5.0972179258657077E-007
   1.2866666666666663E-005     3.7705831986600443E-007
   1.3066666666666661E-005     1.5606436401945607E-007
   1.3266666666666666E-005    -1.1356299209049236E-007
   1.3466666666666664E-005    -3.7863677744736253E-007
   1.3666666666666662E-005    -5.8286165281526940E-007
   1.3866666666666660E-005    -6.7874127731806275E-007
   1.4066666666666665E-005    -6.3853398731795335E-007
   1.4266666666666663E-005    -4.6178047523465753E-007
   1.4466666666666661E-005    -1.7747627207043119E-007
   1.4666666666666666E-005     1.6001697381269839E-007
   1.4866666666666664E-005     4.8092207661791642E-007
   1.5066666666666662E-005     7.1413596371425342E-007
   1.5266666666666661E-005     8.0268509329940464E-007
   1.5466666666666665E-005     7.1725536555843037E-007
   1.5666666666666663E-005     4.6467126482020495E-007
   1.5866666666666662E-005     8.9073289716845117E-008
   1.6066666666666660E-005    -3.3501736640776920E-007
   1.6266666666666665E-005    -7.1683003267338416E-007
   1.6466666666666663E-005    -9.6809220617994960E-007
   1.6666666666666661E-005    -1.0226041393658675E-006
   1.6866666666666666E-005    -8.5238440802221139E-007
   1.7066666666666664E-005    -4.7657802482409871E-007
   1.7266666666666662E-005     3.9360537998981492E-008
   1.7466666666666660E-005     5.9472323396782291E-007
   1.7666666666666665E-005     1.0731298563548310E-006
   1.7866666666666663E-005     1.3669083078303612E-006
   1.8066666666666661E-005     1.4012235112219049E-006
   1.8266666666666666E-005     1.1526005689438125E-006
   1.8466666666666664E-005     6.5735819142558441E-007
   1.8666666666666662E-005     7.3912620604328235E-009
   1.8866666666666660E-005    -6.6662837546065730E-007
   1.9066666666666665E-005    -1.2217660729183722E-006
   1.9266666666666663E-005    -1.5338277161439566E-006
   1.9466666666666661E-005    -1.5262639343706857E-006
   1.9666666666666666E-005    -1.1903918920204689E-006
   1.9866666666666664E-005    -5.9181541715345496E-007
   2.0066666666666662E-005     1.3937478098849029E-007
   2.0266666666666660E-005     8.3361117450645681E-007
   2.0466666666666665E-005     1.3176197284480706E-006
   2.0666666666666663E-005     1.4537994604221516E-006
   2.0866666666666661E-005     1.1747447511404965E-006
   2.1066666666666659E-005     5.0490147212683214E-007
   2.1266666666666664E-005    -4.3641279802578232E-007
   2.1466666666666662E-005    -1.4527323815517169E-006
   2.1666666666666660E-005    -2.3066550199451878E-006
   2.1866666666666665E-005    -2.7681080107052522E-006
   2.2066666666666663E-005    -2.6651826059043811E-006
   2.2266666666666661E-005    -1.9268331380650391E-006
   2.2466666666666659E-005    -6.0775019316639929E-007
   2.2666666666666664E-005     1.1111295835633674E-006
   2.2866666666666662E-005     2.9482776692678835E-006
   2.3066666666666660E-005     4.5697812005613239E-006
   2.3266666666666665E-005     5.6515441307445612E-006
   2.3466666666666663E-005     5.9435035345078422E-006
   2.3666666666666661E-005     5.3228126528871084E-006
   2.3866666666666660E-005     3.8245681111951206E-006
   2.4066666666666664E-005     1.6427562971934256E-006
   2.4266666666666662E-005    -9.0006463535800399E-007
   2.4466666666666661E-005    -3.4094293631554393E-006
   2.4666666666666665E-005    -5.4914295623658191E-006
   2.4866666666666663E-005    -6.8267688683519258E-006
   2.5066666666666662E-005    -7.2314059566734326E-006
   2.5266666666666660E-005    -6.6910986158601314E-006
   2.5466666666666665E-005    -5.3622304942136437E-006
   2.5666666666666663E-005    -3.5381193360103430E-006
   2.5866666666666661E-005    -1.5872217117928702E-006
   2.6066666666666666E-005     1.2431412102306047E-007
   2.6266666666666664E-005     1.3097161180288205E-006
   2.6466666666666662E-005     1.8219749601346862E-006
   2.6666666666666660E-005     1.6844457003660102E-006
   2.6866666666666665E-005     1.0846215000783476E-006
   2.7066666666666663E-005     3.3174747285121727E-007
   2.7266666666666661E-005    -2.1331966170084628E-007
   2.7466666666666666E-005    -2.2147566893111108E-007
   2.7666666666666664E-005     5.2570922045550943E-007
   2.7866666666666662E-005     2.0785949880137117E-006
   2.8066666666666667E-005     4.2964284896627240E-006
   2.8266666666666658E-005     6.8643808826450094E-006
   2.8466666666666663E-005     9.3479273641533990E-006
   2.8666666666666668E-005     1.1273810231672657E-005
   2.8866666666666659E-005     1.2220982416681771E-005
   2.9066666666666664E-005     1.1902554596816414E-005
   2.9266666666666669E-005     1.0221516131892128E-005
   2.9466666666666660E-005     7.2884628183999768E-006
   2.9666666666666665E-005     3.3977007064313781E-006
   2.9866666666666656E-005    -1.0328513959224164E-006
   3.0066666666666661E-005    -5.5445315768265079E-006
   3.0266666666666666E-005    -9.7250396272606464E-006
   3.0466666666666657E-005    -1.3280079847990819E-005
   3.0666666666666662E-005    -1.6073216236639556E-005
   3.0866666666666667E-005    -1.8124635605956008E-005
   3.1066666666666658E-005    -1.9568930862912234E-005
   3.1266666666666663E-005    -2.0581733782152666E-005
   3.1466666666666668E-005    -2.1292752592515622E-005
   3.1666666666666659E-005    -2.1706992257091246E-005
   3.1866666666666664E-005    -2.1655238887282577E-005
   3.2066666666666656E-005    -2.0789433936248513E-005
   3.2266666666666660E-005    -1.8629309114250751E-005
   3.2466666666666665E-005    -1.4655442614978050E-005
   3.2666666666666657E-005    -8.4329569118352961E-006
   3.2866666666666661E-005     2.5782022440635493E-007
   3.3066666666666666E-005     1.1310977336106757E-005
   3.3266666666666658E-005     2.4229951596153355E-005
   3.3466666666666662E-005     3.8125368526778767E-005
   3.3666666666666667E-005     5.1781980442246539E-005
   3.3866666666666659E-005     6.3787710286414392E-005
   3.4066666666666664E-005     7.2705674972335608E-005
   3.4266666666666668E-005     7.7261187329104314E-005
   3.4466666666666660E-005     7.6512497730677720E-005
   3.4666666666666665E-005     6.9976540212700930E-005
   3.4866666666666656E-005     5.7689530688205290E-005
   3.5066666666666661E-005     4.0194289979149337E-005
   3.5266666666666666E-005     1.8460237824812127E-005
   3.5466666666666657E-005    -6.2455886080586707E-006
   3.5666666666666662E-005    -3.2509359672045385E-005
   3.5866666666666667E-005    -5.8913282237591889E-005
   3.6066666666666658E-005    -8.4143596216366517E-005
   3.6266666666666663E-005    -1.0704620979182391E-004
   3.6466666666666668E-005    -1.2662500896923825E-004
   3.6666666666666659E-005    -1.4199194021717165E-004
   3.6866666666666664E-005    -1.5229028722392923E-004
   3.7066666666666669E-005    -1.5662032317109061E-004
   3.7266666666666660E-005    -1.5399829160123185E-004
   3.7466666666666665E-005    -1.4337477879968163E-004
   3.7666666666666656E-005    -1.2372719638766488E-004
   3.7866666666666661E-005    -9.4226408575026380E-005
   3.8066666666666666E-005    -5.4460174792862852E-005
   3.8266666666666657E-005    -4.6818831521827388E-006
   3.8466666666666662E-005     5.3957880575432686E-005
   3.8666666666666667E-005     1.1924311530890045E-004
   3.8866666666666658E-005     1.8782973026827590E-004
   3.9066666666666663E-005     2.5531967825965498E-004
   3.9266666666666668E-005     3.1648589569621243E-004
   3.9466666666666659E-005     3.6564194028439992E-004
   3.9666666666666664E-005     3.9712909464768484E-004
   3.9866666666666655E-005     4.0587537184353067E-004
   4.0066666666666660E-005     3.8796838283933275E-004
   4.0266666666666665E-005     3.4117739711638022E-004
   4.0466666666666656E-005     2.6536188782048969E-004
   4.0666666666666661E-005     1.6271355504870335E-004
   4.0866666666666666E-005     3.7794340032686691E-005
   4.1066666666666657E-005    -1.0264610303356124E-004
   4.1266666666666662E-005    -2.5006805146983620E-004
   4.1466666666666667E-005    -3.9472566847834371E-004
   4.1666666666666658E-005    -5.2638872868809264E-004
   4.1866666666666663E-005    -6.3513891237730645E-004
   4.2066666666666668E-005    -7.1216656044129718E-004
   4.2266666666666660E-005    -7.5049432120296916E-004
   4.2466666666666664E-005    -7.4555849290723684E-004
   4.2666666666666656E-005    -6.9559215220712373E-004
   4.2866666666666661E-005    -6.0177638935684607E-004
   4.3066666666666665E-005    -4.6814606356935129E-004
   4.3266666666666657E-005    -3.0126772435946897E-004
   4.3466666666666662E-005    -1.0972723334739740E-004
   4.3666666666666666E-005     9.6511252148267596E-005
   4.3866666666666658E-005     3.0680363007254099E-004
   4.4066666666666663E-005     5.1050540483370374E-004
   4.4266666666666667E-005     6.9756444869032081E-004
   4.4466666666666659E-005     8.5897687206969479E-004
   4.4666666666666664E-005     9.8708040482055944E-004
   4.4866666666666655E-005     1.0756881345896782E-003
   4.5066666666666660E-005     1.1200928435801869E-003
   4.5266666666666665E-005     1.1169933897258119E-003
   4.5466666666666656E-005     1.0644062682357903E-003
   4.5666666666666661E-005     9.6162307712748191E-004
   4.5866666666666666E-005     8.0926043358272649E-004
   4.6066666666666657E-005     6.0942518413632102E-004
   4.6266666666666662E-005     3.6598208264779512E-004
   4.6466666666666667E-005     8.4878353270024571E-005
   4.6666666666666658E-005    -2.2554534064294070E-004
   4.6866666666666663E-005    -5.5434998509616142E-004
   4.7066666666666668E-005    -8.8798887317840321E-004
   4.7266666666666659E-005    -1.2105704127757955E-003
   4.7466666666666664E-005    -1.5044359653823727E-003
   4.7666666666666655E-005    -1.7510534339723843E-003
   4.7866666666666660E-005    -1.9321781550288727E-003
   4.8066666666666665E-005    -2.0311885205783068E-003
   4.8266666666666656E-005    -2.0344698183387840E-003
   4.8466666666666661E-005    -1.9327014596537311E-003
   4.8666666666666666E-005    -1.7219082567931985E-003
   4.8866666666666657E-005    -1.4041594026553467E-003
   4.9066666666666662E-005    -9.8783944116441480E-004
   4.9266666666666667E-005    -4.8747075433530488E-004
   4.9466666666666658E-005     7.6889898211942448E-005
   4.9666666666666663E-005     6.8060331035954633E-004
   4.9866666666666655E-005     1.2956482907855243E-003
   5.0066666666666659E-005     1.8919583028243648E-003
   5.0266666666666664E-005     2.4387906326151631E-003
   5.0466666666666656E-005     2.9060518014058156E-003
   5.0666666666666660E-005     3.2655369737718668E-003
   5.0866666666666665E-005     3.4920790308550155E-003
   5.1066666666666657E-005     3.5646306080214748E-003
   5.1266666666666661E-005     3.4673127201387717E-003
   5.1466666666666666E-005     3.1904626442912274E-003
   5.1666666666666658E-005     2.7316806760418100E-003
   5.1866666666666662E-005     2.0968382683043594E-003
   5.2066666666666667E-005     1.3009627955270816E-003
   5.2266666666666659E-005     3.6886710088407474E-004
   5.2466666666666664E-005    -6.6463696011603650E-004
   5.2666666666666655E-005    -1.7551099206693649E-003
   5.2866666666666660E-005    -2.8495885403885778E-003
   5.3066666666666665E-005    -3.8885201156875025E-003
   5.3266666666666656E-005    -4.8085439533586388E-003
   5.3466666666666661E-005    -5.5460516732114369E-003
   5.3666666666666666E-005    -6.0413406056279576E-003
   5.3866666666666657E-005    -6.2430982206580507E-003
   5.4066666666666662E-005    -6.1128624931391668E-003
   5.4266666666666667E-005    -5.6290758682051561E-003
   5.4466666666666658E-005    -4.7903337601249698E-003
   5.4666666666666663E-005    -3.6174633052594952E-003
   5.4866666666666668E-005    -2.1541579477601450E-003
   5.5066666666666659E-005    -4.6598032208259655E-004
   5.5266666666666664E-005     1.3623055366127556E-003
   5.5466666666666655E-005     3.2309861531734287E-003
   5.5666666666666660E-005     5.0310022940142987E-003
   5.5866666666666665E-005     6.6505615374870160E-003
   5.6066666666666656E-005     7.9823161424209480E-003
   5.6266666666666661E-005     8.9306190235446930E-003
   5.6466666666666666E-005     9.4183312598326192E-003
   5.6666666666666657E-005     9.3927070803281349E-003
   5.6866666666666662E-005     8.8298976134473534E-003
   5.7066666666666667E-005     7.7377489366975121E-003
   5.7266666666666658E-005     6.1566460209739301E-003
   5.7466666666666663E-005     4.1583023542680333E-003
   5.7666666666666654E-005     1.8425163509606752E-003
   5.7866666666666659E-005    -6.6793450204056333E-004
   5.8066666666666664E-005    -3.2339953968633659E-003
   5.8266666666666655E-005    -5.7082416619703407E-003
   5.8466666666666660E-005    -7.9435364946949145E-003
   5.8666666666666665E-005    -9.8019290633285204E-003
   5.8866666666666656E-005    -1.1163264182458055E-002
   5.9066666666666661E-005    -1.1932985002481293E-002
   5.9266666666666666E-005    -1.2048651026990525E-002
   5.9466666666666657E-005    -1.1484746115541296E-002
   5.9666666666666662E-005    -1.0255448935795131E-002
   5.9866666666666667E-005    -8.4151210051435239E-003
   6.0066666666666659E-005    -6.0563964688799612E-003
   6.0266666666666663E-005    -3.3058696337837281E-003
   6.0466666666666655E-005    -3.1752451101079685E-004
   6.0666666666666660E-005     2.7358412353213441E-003
   6.0866666666666664E-005     5.6727644430851860E-003
   6.1066666666666656E-005     8.3143135163534516E-003
   6.1266666666666661E-005     1.0495664215757945E-002
   6.1466666666666665E-005     1.2077309409817718E-002
   6.1666666666666657E-005     1.2955108295265909E-002
   6.1866666666666662E-005     1.3068388072341286E-002
   6.2066666666666666E-005     1.2405371627248562E-002
   6.2266666666666658E-005     1.1005382230535267E-002
   6.2466666666666663E-005     8.9574331654487006E-003
   6.2666666666666668E-005     6.3951306255413164E-003
   6.2866666666666659E-005     3.4880759263213458E-003
   6.3066666666666664E-005     4.3030386880947027E-004
   6.3266666666666655E-005    -2.5734529984605980E-003
   6.3466666666666660E-005    -5.3226239184691248E-003
   6.3666666666666665E-005    -7.6356181002260526E-003
   6.3866666666666656E-005    -9.3633706450560739E-003
   6.4066666666666661E-005    -1.0400489846100269E-002
   6.4266666666666666E-005    -1.0693060418498435E-002
   6.4466666666666657E-005    -1.0242451927134012E-002
   6.4666666666666662E-005    -9.1048390434170234E-003
   6.4866666666666667E-005    -7.3865189514712628E-003
   6.5066666666666658E-005    -5.2354807816008472E-003
   6.5266666666666663E-005    -2.8299749638353274E-003
   6.5466666666666654E-005    -3.6508737439222897E-004
   6.5666666666666659E-005     1.9616001200210352E-003
   6.5866666666666664E-005     3.9641567443113816E-003
   6.6066666666666655E-005     5.4812755512518080E-003
   6.6266666666666660E-005     6.3872435897651255E-003
   6.6466666666666665E-005     6.6003504634921410E-003
   6.6666666666666656E-005     6.0883783720825447E-003
   6.6866666666666661E-005     4.8710832716526414E-003
   6.7066666666666666E-005     3.0197223580525167E-003
   6.7266666666666657E-005     6.5382460355983222E-004
   6.7466666666666662E-005    -2.0645277375216748E-003
   6.7666666666666667E-005    -4.9386217359501062E-003
   6.7866666666666658E-005    -7.7469563847296502E-003
   6.8066666666666663E-005    -1.0254715113750762E-002
   6.8266666666666655E-005    -1.2226552074338658E-002
   6.8466666666666659E-005    -1.3440330756344250E-002
   6.8666666666666664E-005    -1.3701340900152469E-002
   6.8866666666666656E-005    -1.2856409495202730E-002
   6.9066666666666660E-005    -1.0807184817289262E-002
   6.9266666666666665E-005    -7.5217561600912303E-003
   6.9466666666666657E-005    -3.0436789237541441E-003
   6.9666666666666661E-005     2.5024557523069986E-003
   6.9866666666666666E-005     8.9097602827604202E-003
   7.0066666666666658E-005     1.5892678932767596E-002
   7.0266666666666662E-005     2.3095827349487692E-002
   7.0466666666666654E-005     3.0108024125390459E-002
   7.0666666666666659E-005     3.6481060482944437E-002
   7.0866666666666664E-005     4.1752397614509398E-002
   7.1066666666666655E-005     4.5470616326722897E-002
   7.1266666666666660E-005     4.7222157837884693E-002
   7.1466666666666665E-005     4.6657763747203290E-002
   7.1666666666666656E-005     4.3516979329198756E-002
   7.1866666666666661E-005     3.7649203672665887E-002
   7.2066666666666666E-005     2.9029920888727662E-002
   7.2266666666666657E-005     1.7771176618227927E-002
   7.2466666666666662E-005     4.1255963313161356E-003
   7.2666666666666667E-005    -1.1516234224048964E-002
   7.2866666666666658E-005    -2.8634910019115559E-002
   7.3066666666666663E-005    -4.6597400734506245E-002
   7.3266666666666654E-005    -6.4677521336430913E-002
   7.3466666666666659E-005    -8.2080821741845111E-002
   7.3666666666666664E-005    -9.7972777503566574E-002
   7.3866666666666655E-005   -0.11150930115472912     
   7.4066666666666660E-005   -0.12186850927998591     
   7.4266666666666665E-005   -0.12828273680855731     
   7.4466666666666656E-005   -0.13006999794806440     
   7.4666666666666661E-005   -0.12666398328725031     
   7.4866666666666666E-005   -0.11764188969004306     
   7.5066666666666657E-005   -0.10274937055292423     
   7.5266666666666662E-005    -8.1921961108075869E-002
   7.5466666666666653E-005    -5.5302260148925392E-002