  -3.3333333333333335E-005     0.0000000000000000     
  -3.3133333333333337E-005     0.0000000000000000     
  -3.2933333333333332E-005     0.0000000000000000     
  -3.2733333333333334E-005     0.0000000000000000     
  -3.2533333333333336E-005     0.0000000000000000     
  -3.2333333333333338E-005     0.0000000000000000     
  -3.2133333333333333E-005     0.0000000000000000     
  -3.1933333333333335E-005     0.0000000000000000     
  -3.1733333333333337E-005     0.0000000000000000     
  -3.1533333333333332E-005     0.0000000000000000     
  -3.1333333333333334E-005     0.0000000000000000     
  -3.1133333333333336E-005     0.0000000000000000     
  -3.0933333333333338E-005     0.0000000000000000     
  -3.0733333333333333E-005     0.0000000000000000     
  -3.0533333333333335E-005     0.0000000000000000     
  -3.0333333333333337E-005     0.0000000000000000     
  -3.0133333333333335E-005     0.0000000000000000     
  -2.9933333333333334E-005     0.0000000000000000     
  -2.9733333333333336E-005     0.0000000000000000     
  -2.9533333333333334E-005     0.0000000000000000     
  -2.9333333333333336E-005     0.0000000000000000     
  -2.9133333333333334E-005     0.0000000000000000     
  -2.8933333333333336E-005     0.0000000000000000     
  -2.8733333333333335E-005     0.0000000000000000     
  -2.8533333333333333E-005     0.0000000000000000     
  -2.8333333333333335E-005     0.0000000000000000     
  -2.8133333333333337E-005     0.0000000000000000     
  -2.7933333333333336E-005     0.0000000000000000     
  -2.7733333333333334E-005     0.0000000000000000     
  -2.7533333333333336E-005     0.0000000000000000     
  -2.7333333333333335E-005     0.0000000000000000     
  -2.7133333333333333E-005     0.0000000000000000     
  -2.6933333333333335E-005     0.0000000000000000     
  -2.6733333333333337E-005     0.0000000000000000     
  -2.6533333333333336E-005     0.0000000000000000     
  -2.6333333333333334E-005     0.0000000000000000     
  -2.6133333333333336E-005     0.0000000000000000     
  -2.5933333333333335E-005     0.0000000000000000     
  -2.5733333333333333E-005    -4.7337971333123474E-041
  -2.5533333333333335E-005    -1.7819433993154688E-040
  -2.5333333333333337E-005    -3.4460615083395177E-040
  -2.5133333333333336E-005    -5.2253731247218100E-040
  -2.4933333333333334E-005     2.2537532083766196E-040
  -2.4733333333333336E-005     4.2968245235647730E-039
  -2.4533333333333334E-005     1.5107622384331975E-038
  -2.4333333333333333E-005     3.4546054808788857E-038
  -2.4133333333333335E-005     4.9571660423602451E-038
  -2.3933333333333337E-005     2.8998529529945417E-038
  -2.3733333333333335E-005    -1.1713991958227548E-037
  -2.3533333333333334E-005    -4.9484810703875012E-037
  -2.3333333333333336E-005    -1.1298606177013471E-036
  -2.3133333333333338E-005    -1.7112675671688712E-036
  -2.2933333333333336E-005    -1.1925742229723680E-036
  -2.2733333333333335E-005     2.5003832639067127E-036
  -2.2533333333333337E-005     1.1957938925205247E-035
  -2.2333333333333335E-005     2.7763918472685432E-035
  -2.2133333333333334E-005     4.2686243257433376E-035
  -2.1933333333333336E-005     3.2898150401922155E-035
  -2.1733333333333338E-005    -4.8856271515358185E-035
  -2.1533333333333336E-005    -2.6485693864812483E-034
  -2.1333333333333335E-005    -6.4576749336262762E-034
  -2.1133333333333337E-005    -1.0805519529724045E-033
  -2.0933333333333335E-005    -1.1404225066996145E-033
  -2.0733333333333334E-005     9.5272799269112589E-035
  -2.0533333333333336E-005     4.0114206556762941E-033
  -2.0333333333333337E-005     1.1860609050511324E-032
  -2.0133333333333336E-005     2.3136258845658333E-032
  -1.9933333333333334E-005     3.2657028506455119E-032
  -1.9733333333333336E-005     2.6920778345190944E-032
  -1.9533333333333335E-005    -1.8023070346629657E-032
  -1.9333333333333333E-005    -1.3249405016685680E-031
  -1.9133333333333335E-005    -3.3601702999862485E-031
  -1.8933333333333337E-005    -6.0060281022760852E-031
  -1.8733333333333336E-005    -7.9468804212587343E-031
  -1.8533333333333334E-005    -6.2483834415383929E-031
  -1.8333333333333336E-005     3.7933254560181148E-031
  -1.8133333333333335E-005     2.7579393578847276E-030
  -1.7933333333333337E-005     6.7923981623180985E-030
  -1.7733333333333335E-005     1.1885793500819997E-029
  -1.7533333333333337E-005     1.5705083100260291E-029
  -1.7333333333333336E-005     1.3391458287350109E-029
  -1.7133333333333334E-005    -2.4829781084578171E-030
  -1.6933333333333336E-005    -4.0155212652564258E-029
  -1.6733333333333335E-005    -1.0392314189378507E-028
  -1.6533333333333337E-005    -1.8575327292314201E-028
  -1.6333333333333335E-005    -2.5423127868832292E-028
  -1.6133333333333337E-005    -2.4486443241637217E-028
  -1.5933333333333336E-005    -5.9823502674197263E-029
  -1.5733333333333334E-005     4.1103329599032022E-028
  -1.5533333333333336E-005     1.2353312724403927E-027
  -1.5333333333333334E-005     2.3433554131699750E-027
  -1.5133333333333336E-005     3.4044023576439782E-027
  -1.4933333333333335E-005     3.7156107600184575E-027
  -1.4733333333333337E-005     2.1835468895133329E-027
  -1.4533333333333335E-005    -2.4866133017988915E-027
  -1.4333333333333337E-005    -1.1273799843217373E-026
  -1.4133333333333336E-005    -2.3931617071251134E-026
  -1.3933333333333334E-005    -3.7773503606631073E-026
  -1.3733333333333336E-005    -4.6496733828170319E-026
  -1.3533333333333335E-005    -3.9720798054580682E-026
  -1.3333333333333337E-005    -4.2166565286822950E-027
  -1.3133333333333335E-005     7.2112680865571643E-026
  -1.2933333333333337E-005     1.9282233815292276E-025
  -1.2733333333333336E-005     3.4249911146124843E-025
  -1.2533333333333338E-005     4.7563436491294415E-025
  -1.2333333333333336E-005     5.0962581919512704E-025
  -1.2133333333333335E-005     3.2918201346779171E-025
  -1.1933333333333337E-005    -1.8945942683890904E-025
  -1.1733333333333335E-005    -1.1279311090945343E-024
  -1.1533333333333337E-005    -2.4487008248155676E-024
  -1.1333333333333336E-005    -3.9036754383982665E-024
  -1.1133333333333337E-005    -4.9574081749791602E-024
  -1.0933333333333336E-005    -4.7718466303001002E-024
  -1.0733333333333334E-005    -2.3115168571906958E-024
  -1.0533333333333336E-005     3.3760313898626026E-024
  -1.0333333333333335E-005     1.2680681998825648E-023
  -1.0133333333333337E-005     2.4792835733723319E-023
  -9.9333333333333354E-006     3.7049828134304780E-023
  -9.7333333333333373E-006     4.4522918877271259E-023
  -9.5333333333333358E-006     4.0201353507384121E-023
  -9.3333333333333343E-006     1.6159071757613144E-023
  -9.1333333333333362E-006    -3.4014094915374321E-023
  -8.9333333333333348E-006    -1.1152517010233379E-022
  -8.7333333333333367E-006    -2.0793851696645673E-022
  -8.5333333333333352E-006    -3.0113973598212088E-022
  -8.3333333333333371E-006    -3.5352543464384525E-022
  -8.1333333333333356E-006    -3.1468309106118115E-022
  -7.9333333333333376E-006    -1.3072387256087238E-022
  -7.7333333333333361E-006     2.3853214267906384E-022
  -7.5333333333333346E-006     7.9535916444562994E-022
  -7.3333333333333365E-006     1.4768358955123826E-021
  -7.1333333333333351E-006     2.1320579029569911E-021
  -6.9333333333333370E-006     2.5148146970006820E-021
  -6.7333333333333355E-006     2.3043748459129102E-021
  -6.5333333333333374E-006     1.1654096731645852E-021
  -6.3333333333333359E-006    -1.1482809328889951E-021
  -6.1333333333333379E-006    -4.6534030834712957E-021
  -5.9333333333333364E-006    -8.9839339781159948E-021
  -5.7333333333333349E-006    -1.3267480836395488E-020
  -5.5333333333333368E-006    -1.6089597587758500E-020
  -5.3333333333333354E-006    -1.5610780265339262E-020
  -5.1333333333333373E-006    -9.8901630600675425E-021
  -4.9333333333333358E-006     2.5640646053642475E-021
  -4.7333333333333377E-006     2.2057120312646506E-020
  -4.5333333333333362E-006     4.6903556749790282E-020
  -4.3333333333333348E-006     7.2766241896237966E-020
  -4.1333333333333367E-006     9.2422092288072233E-020
  -3.9333333333333352E-006     9.6267058057801843E-020
  -3.7333333333333371E-006     7.3822933315066130E-020
  -3.5333333333333356E-006     1.6353300432180776E-020
  -3.3333333333333376E-006    -7.9574926967336724E-020
  -3.1333333333333361E-006    -2.0811482281642492E-019
  -2.9333333333333346E-006    -3.5068404358401699E-019
  -2.7333333333333365E-006    -4.7431427187643017E-019
  -2.5333333333333384E-006    -5.3324584676595611E-019
  -2.3333333333333336E-006    -4.7503193082922875E-019
  -2.1333333333333355E-006    -2.5178759366080876E-019
  -1.9333333333333374E-006     1.6391221200244845E-019
  -1.7333333333333393E-006     7.6055247961547849E-019
  -1.5333333333333345E-006     1.4704621346175046E-018
  -1.3333333333333364E-006     2.1593092891747215E-018
  -1.1333333333333383E-006     2.6286291535106764E-018
  -9.3333333333333343E-007     2.6372589031444564E-018
  -7.3333333333333535E-007     1.9452541733469023E-018
  -5.3333333333333726E-007     3.7944235162614295E-019
  -3.3333333333333918E-007    -2.0865771199172736E-018
  -1.3333333333333432E-007    -5.2526200738879906E-018
   6.6666666666663770E-008    -8.6339578494627174E-018
   2.6666666666666185E-007    -1.1451351397762679E-017
   4.6666666666666672E-007    -1.2694731951834819E-017
   6.6666666666666480E-007    -1.1278472431291435E-017
   8.6666666666666289E-007    -6.2900465842568120E-018
   1.0666666666666610E-006     2.6902538207704984E-018
   1.2666666666666658E-006     1.5250130507029878E-017
   1.4666666666666639E-006     2.9867000524761888E-017
   1.6666666666666620E-006     4.3791398243878990E-017
   1.8666666666666669E-006     5.3195445746834384E-017
   2.0666666666666649E-006     5.3666290170493174E-017
   2.2666666666666630E-006     4.1069149332660572E-017
   2.4666666666666611E-006     1.2718908834006287E-017
   2.6666666666666660E-006    -3.1307627193311230E-017
   2.8666666666666641E-006    -8.6995332999518372E-017
   3.0666666666666622E-006    -1.4570922184497277E-016
   3.2666666666666602E-006    -1.9439020167644329E-016
   3.4666666666666651E-006    -2.1694476858138962E-016
   3.6666666666666632E-006    -1.9697012741453671E-016
   3.8666666666666613E-006    -1.2167349251473792E-016
   4.0666666666666661E-006     1.3516081929160440E-017
   4.2666666666666642E-006     2.0052082295716109E-016
   4.4666666666666623E-006     4.1554915396549818E-016
   4.6666666666666604E-006     6.1868694329382674E-016
   4.8666666666666652E-006     7.5727425733335875E-016
   5.0666666666666633E-006     7.7368318419091665E-016
   5.2666666666666614E-006     6.1725112989748429E-016
   5.4666666666666663E-006     2.5900454095160038E-016
   5.6666666666666644E-006    -2.9338438265047650E-016
   5.8666666666666624E-006    -9.8395225964649184E-016
   6.0666666666666605E-006    -1.7041196548060744E-015
   6.2666666666666654E-006    -2.2993369452362861E-015
   6.4666666666666635E-006    -2.5889683753512153E-015
   6.6666666666666616E-006    -2.3992679082974867E-015
   6.8666666666666664E-006    -1.6060980678585035E-015
   7.0666666666666645E-006    -1.8057508129095171E-016
   7.2666666666666626E-006     1.7721480735209652E-015
   7.4666666666666607E-006     3.9923373700415471E-015
   7.6666666666666655E-006     6.0741303639742575E-015
   7.8666666666666636E-006     7.5103428962858416E-015
   8.0666666666666617E-006     7.7747877065881836E-015
   8.2666666666666598E-006     6.4348412714462400E-015
   8.4666666666666647E-006     3.2777230999127032E-015
   8.6666666666666627E-006    -1.5742459245148283E-015
   8.8666666666666608E-006    -7.5889918540654380E-015
   9.0666666666666657E-006    -1.3819620461842434E-014
   9.2666666666666638E-006    -1.8990408586198038E-014
   9.4666666666666619E-006    -2.1680734925524263E-014
   9.6666666666666599E-006    -2.0593576060868959E-014
   9.8666666666666648E-006    -1.4872391858683942E-014
   1.0066666666666663E-005    -4.4094690073332017E-015
   1.0266666666666661E-005     9.9246176232961247E-015
   1.0466666666666666E-005     2.6201842237853621E-014
   1.0666666666666664E-005     4.1564626944031425E-014
   1.0866666666666662E-005     5.2586502743539879E-014
   1.1066666666666660E-005     5.5846726282470996E-014
   1.1266666666666665E-005     4.8648792698539174E-014
   1.1466666666666663E-005     2.9764597329794481E-014
   1.1666666666666661E-005     5.2298819955063226E-017
   1.1866666666666666E-005    -3.7212572199491441E-014
   1.2066666666666664E-005    -7.6428871580035266E-014
   1.2266666666666662E-005    -1.1026177382706783E-013
   1.2466666666666660E-005    -1.3072393323419005E-013
   1.2666666666666665E-005    -1.3063053785304449E-013
   1.2866666666666663E-005    -1.0521102272830428E-013
   1.3066666666666661E-005    -5.3583422060186856E-014
   1.3266666666666666E-005     2.0233479743461914E-014
   1.3466666666666664E-005     1.0706498328622943E-013
   1.3666666666666662E-005     1.9328080580226229E-013
   1.3866666666666660E-005     2.6249605731504168E-013
   1.4066666666666665E-005     2.9812872239337934E-013
   1.4266666666666663E-005     2.8647740544683986E-013
   1.4466666666666661E-005     2.1982626509174139E-013
   1.4666666666666666E-005     9.8998762501918560E-014
   1.4866666666666664E-005    -6.5204280447806273E-014
   1.5066666666666662E-005    -2.5212475079064220E-013
   1.5266666666666661E-005    -4.3314663641313320E-013
   1.5466666666666665E-005    -5.7530681496039257E-013
   1.5666666666666663E-005    -6.4623871795687308E-013
   1.5866666666666662E-005    -6.1979405551058580E-013
   1.6066666666666660E-005    -4.8149609386543540E-013
   1.6266666666666665E-005    -2.3291212016541995E-013
   1.6466666666666663E-005     1.0589127408558995E-013
   1.6666666666666661E-005     4.9643527843984436E-013
   1.6866666666666666E-005     8.8476584006246003E-013
   1.7066666666666664E-005     1.2071746048719967E-012
   1.7266666666666662E-005     1.3982534834434114E-012
   1.7466666666666660E-005     1.4004934242552052E-012
   1.7666666666666665E-005     1.1743685533456305E-012
   1.7866666666666663E-005     7.0767283490446211E-013
   1.8066666666666661E-005     2.2792392981755618E-014
   1.8266666666666666E-005    -8.1938629478884301E-013
   1.8466666666666664E-005    -1.7201185909615676E-012
   1.8666666666666662E-005    -2.5489425388320000E-012
   1.8866666666666660E-005    -3.1558623514319454E-012
   1.9066666666666665E-005    -3.3895140266441730E-012
   1.9266666666666663E-005    -3.1203976159798795E-012
   1.9466666666666661E-005    -2.2671951557906031E-012
   1.9666666666666666E-005    -8.2297837301832593E-013
   1.9866666666666664E-005     1.1230407703490963E-012
   2.0066666666666662E-005     3.3733892006992523E-012
   2.0266666666666660E-005     5.6251570600329853E-012
   2.0466666666666665E-005     7.4922034393315450E-012
   2.0666666666666663E-005     8.5490495178348746E-012
   2.0866666666666661E-005     8.3953239850021655E-012
   2.1066666666666659E-005     6.7351680545473656E-012
   2.1266666666666664E-005     3.4611196446383820E-012
   2.1466666666666662E-005    -1.2723742846467522E-012
   2.1666666666666660E-005    -7.0033604532143201E-012
   2.1866666666666665E-005    -1.2962120865807301E-011
   2.2066666666666663E-005    -1.8129822324570722E-011
   2.2266666666666661E-005    -2.1361734960054574E-011
   2.2466666666666659E-005    -2.1569182269524113E-011
   2.2666666666666664E-005    -1.7940717328341636E-011
   2.2866666666666662E-005    -1.0169503943530247E-011
   2.3066666666666660E-005     1.3565690785121927E-012
   2.3266666666666665E-005     1.5449786983266161E-011
   2.3466666666666663E-005     3.0145719744183117E-011
   2.3666666666666661E-005     4.2883123986901186E-011
   2.3866666666666660E-005     5.0844851321269477E-011
   2.4066666666666664E-005     5.1432537196680907E-011
   2.4266666666666662E-005     4.2814173726193547E-011
   2.4466666666666661E-005     2.4454196966664492E-011
   2.4666666666666665E-005    -2.4824972825048696E-012
   2.4866666666666663E-005    -3.4961430914043158E-011
   2.5066666666666662E-005    -6.8231621684151202E-011
   2.5266666666666660E-005    -9.6343898614949463E-011
   2.5466666666666665E-005    -1.1301464233368538E-010
   2.5666666666666663E-005    -1.1274243669257769E-010
   2.5866666666666661E-005    -9.2015001811889713E-011
   2.6066666666666666E-005    -5.0391265139745192E-011
   2.6266666666666664E-005     8.7774298216419823E-012
   2.6466666666666662E-005     7.8201051096095761E-011
   2.6666666666666660E-005     1.4722519413203986E-010
   2.6866666666666665E-005     2.0316010897932734E-010
   2.7066666666666663E-005     2.3325861045545825E-010
   2.7266666666666661E-005     2.2709016679117796E-010
   2.7466666666666666E-005     1.7893295729840346E-010
   2.7666666666666664E-005     8.9730245988672792E-011
   2.7866666666666662E-005    -3.1843849425789704E-011
   2.8066666666666667E-005    -1.6957679000301980E-010
   2.8266666666666658E-005    -3.0136138188954297E-010
   2.8466666666666663E-005    -4.0224088729676630E-010
   2.8666666666666668E-005    -4.4852821241655071E-010
   2.8866666666666659E-005    -4.2240983426128385E-010
   2.9066666666666664E-005    -3.1625030302528856E-010
   2.9266666666666669E-005    -1.3573621764361013E-010
   2.9466666666666660E-005     9.8927271726406151E-011
   2.9666666666666665E-005     3.5431630462702639E-010
   2.9866666666666656E-005     5.8775334886519319E-010
   3.0066666666666661E-005     7.5363018063027842E-010
   3.0266666666666666E-005     8.1128973690957783E-010
   3.0466666666666657E-005     7.3324759125286465E-010
   3.0666666666666662E-005     5.1227968607102328E-010
   3.0866666666666667E-005     1.6588675970880016E-010
   3.1066666666666658E-005    -2.6309223686590460E-010
   3.1266666666666663E-005    -7.1041379009406001E-010
   3.1466666666666668E-005    -1.0988650154256069E-009
   3.1666666666666659E-005    -1.3503133465684864E-009
   3.1866666666666664E-005    -1.3996875944096113E-009
   3.2066666666666656E-005    -1.2086064238207652E-009
   3.2266666666666660E-005    -7.7611404122057068E-010
   3.2466666666666665E-005    -1.4415964668153400E-010
   3.2666666666666657E-005     6.0390526386798424E-010
   3.2866666666666661E-005     1.3524929971181407E-009
   3.3066666666666666E-005     1.9699822923046732E-009
   3.3266666666666658E-005     2.3299636565915442E-009
   3.3466666666666662E-005     2.3343574946925154E-009
   3.3666666666666667E-005     1.9344856039599761E-009
   3.3866666666666659E-005     1.1460536638871560E-009
   3.4066666666666664E-005     5.4595622513215439E-011
   3.4266666666666668E-005    -1.1907682130770547E-009
   3.4466666666666660E-005    -2.3955649355969842E-009
   3.4666666666666665E-005    -3.3483827199137475E-009
   3.4866666666666656E-005    -3.8556101548118888E-009
   3.5066666666666661E-005    -3.7770799088761595E-009
   3.5266666666666666E-005    -3.0564172413698047E-009
   3.5466666666666657E-005    -1.7401545688839259E-009
   3.5666666666666662E-005     1.8966567471251079E-011
   3.5866666666666667E-005     1.9767668653600709E-009
   3.6066666666666658E-005     3.8297550175719482E-009
   3.6266666666666663E-005     5.2607426437423569E-009
   3.6466666666666668E-005     5.9913138439281234E-009
   3.6666666666666659E-005     5.8326524856359318E-009
   3.6866666666666664E-005     4.7257172510637117E-009
   3.7066666666666669E-005     2.7628063710842217E-009
   3.7266666666666660E-005     1.8512133543978772E-010
   3.7466666666666665E-005    -2.6453066562949752E-009
   3.7666666666666656E-005    -5.2965646173096778E-009
   3.7866666666666661E-005    -7.3336643607172906E-009
   3.8066666666666666E-005    -8.3908202542371023E-009
   3.8266666666666657E-005    -8.2370401442407930E-009
   3.8466666666666662E-005    -6.8231407897333390E-009
   3.8666666666666667E-005    -4.3007153078352369E-009
   3.8866666666666658E-005    -1.0079332285373970E-009
   3.9066666666666663E-005     2.5774334851615682E-009
   3.9266666666666668E-005     5.9114146822835207E-009
   3.9466666666666659E-005     8.4722347581762197E-009
   3.9666666666666664E-005     9.8488047915749587E-009
   3.9866666666666655E-005     9.8135402761164354E-009
   4.0066666666666660E-005     8.3656534328404623E-009
   4.0266666666666665E-005     5.7357336172706282E-009
   4.0466666666666656E-005     2.3490620593983955E-009
   4.0666666666666661E-005    -1.2473324947162174E-009
   4.0866666666666666E-005    -4.4817399076409972E-009
   4.1066666666666657E-005    -6.8616150547618325E-009
   4.1266666666666662E-005    -8.0645971384258717E-009
   4.1466666666666667E-005    -7.9984381359322681E-009
   4.1666666666666658E-005    -6.8166877314325155E-009
   4.1866666666666663E-005    -4.8849028022958936E-009
   4.2066666666666668E-005    -2.7017773832663531E-009
   4.2266666666666660E-005    -7.8901298437846218E-010
   4.2466666666666664E-005     4.2880776823676597E-010
   4.2666666666666656E-005     7.2935858868155411E-010
   4.2866666666666661E-005     1.5877159078348739E-010
   4.3066666666666665E-005    -9.5910057410519479E-010
   4.3266666666666657E-005    -2.0780796200276600E-009
   4.3466666666666662E-005    -2.5445784409472744E-009
   4.3666666666666666E-005    -1.7537395537814339E-009
   4.3866666666666658E-005     6.8237605805418386E-010
   4.4066666666666663E-005     4.7898530914017269E-009
   4.4266666666666667E-005     1.0146167939936173E-008
   4.4466666666666659E-005     1.5879208657269628E-008
   4.4666666666666664E-005     2.0765517332785352E-008
   4.4866666666666655E-005     2.3423129622896861E-008
   4.5066666666666660E-005     2.2574245394791300E-008
   4.5266666666666665E-005     1.7335781289906628E-008
   4.5466666666666656E-005     7.4842045867282495E-009
   4.5666666666666661E-005    -6.3616835080306906E-009
   4.5866666666666666E-005    -2.2688407467361912E-008
   4.6066666666666657E-005    -3.9196514500042394E-008
   4.6266666666666662E-005    -5.3074711728691050E-008
   4.6466666666666667E-005    -6.1413923941432528E-008
   4.6666666666666658E-005    -6.1706394217058185E-008
   4.6866666666666663E-005    -5.2352252414932925E-008
   4.7066666666666668E-005    -3.3084623835670454E-008
   4.7266666666666659E-005    -5.2273401681208665E-009
   4.7466666666666664E-005     2.8281956039304010E-008
   4.7666666666666655E-005     6.3137605307386631E-008
   4.7866666666666660E-005     9.4172831980701881E-008
   4.8066666666666665E-005     1.1607434535800585E-007
   4.8266666666666656E-005     1.2420998838306089E-007
   4.8466666666666661E-005     1.1544609644206973E-007
   4.8666666666666666E-005     8.8819657629225039E-008
   4.8866666666666657E-005     4.5941213639246520E-008
   4.9066666666666662E-005    -8.9632905154806460E-009
   4.9266666666666667E-005    -6.9413586430952625E-008
   4.9466666666666658E-005    -1.2741889317005117E-007
   4.9666666666666663E-005    -1.7452192055352839E-007
   4.9866666666666655E-005    -2.0300559483791791E-007
   5.0066666666666659E-005    -2.0708894733316045E-007
   5.0266666666666664E-005    -1.8392777487676857E-007
   5.0466666666666656E-005    -1.3425393815531886E-007
   5.0666666666666660E-005    -6.2532403220306877E-008
   5.0866666666666665E-005     2.3417090241739642E-008
   5.1066666666666657E-005     1.1330792367970921E-007
   5.1266666666666661E-005     1.9567834397516673E-007
   5.1466666666666666E-005     2.5941590369541462E-007
   5.1666666666666658E-005     2.9530033865200839E-007
   5.1866666666666662E-005     2.9734058250547213E-007
   5.2066666666666667E-005     2.6370507864753224E-007
   5.2266666666666659E-005     1.9709970467785958E-007
   5.2466666666666664E-005     1.0452660449780204E-007
   5.2666666666666655E-005    -3.5524052313562145E-009
   5.2866666666666660E-005    -1.1453695022887380E-007
   5.3066666666666665E-005    -2.1530956176984234E-007
   5.3266666666666656E-005    -2.9393205575133826E-007
   5.3466666666666661E-005    -3.4117887717645861E-007
   5.3666666666666666E-005    -3.5169753701923021E-007
   5.3866666666666657E-005    -3.2464187515375803E-007
   5.4066666666666662E-005    -2.6370335234737265E-007
   5.4266666666666667E-005    -1.7655151728167406E-007
   5.4466666666666658E-005    -7.3778180432220404E-008
   5.4666666666666663E-005     3.2497339828725325E-008
   5.4866666666666668E-005     1.3016692382276335E-007
   5.5066666666666659E-005     2.0861265004881593E-007
   5.5266666666666664E-005     2.5994642532727728E-007
   5.5466666666666655E-005     2.7987680772255881E-007
   5.5666666666666660E-005     2.6812452896119960E-007
   5.5866666666666665E-005     2.2837285088888812E-007
   5.6066666666666656E-005     1.6778898700455188E-007
   5.6266666666666661E-005     9.6191638179936455E-008
   5.6466666666666666E-005     2.4958835281695248E-008
   5.6666666666666657E-005    -3.4227482500068037E-008
   5.6866666666666662E-005    -7.0708552083439910E-008
   5.7066666666666667E-005    -7.6168786636392546E-008
   5.7266666666666658E-005    -4.5872713791896788E-008
   5.7466666666666663E-005     2.0262035506230744E-008
   5.7666666666666654E-005     1.1685321344904239E-007
   5.7866666666666659E-005     2.3262896475896072E-007
   5.8066666666666664E-005     3.5053250171606791E-007
   5.8266666666666655E-005     4.4851084628650454E-007
   5.8466666666666660E-005     5.0111851158942659E-007
   5.8666666666666665E-005     4.8200765843770273E-007
   5.8866666666666656E-005     3.6726897897397161E-007
   5.9066666666666661E-005     1.3944752124451554E-007
   5.9266666666666666E-005    -2.0811261452781861E-007
   5.9466666666666657E-005    -6.6711408824878184E-007
   5.9666666666666662E-005    -1.2109904572790352E-006
   5.9866666666666667E-005    -1.7931526145934468E-006
   6.0066666666666659E-005    -2.3475004410704043E-006
   6.0266666666666663E-005    -2.7917498109434667E-006
   6.0466666666666655E-005    -3.0338733007927619E-006
   6.0666666666666660E-005    -2.9815663517476616E-006
   6.0866666666666664E-005    -2.5542081075308431E-006
   6.1066666666666656E-005    -1.6963071314961960E-006
   6.1266666666666661E-005    -3.9099798004501040E-007
   6.1466666666666665E-005     1.3281813761749492E-006
   6.1666666666666657E-005     3.3691284013923013E-006
   6.1866666666666662E-005     5.5784563804538400E-006
   6.2066666666666666E-005     7.7456998487896529E-006
   6.2266666666666658E-005     9.6153251372143376E-006
   6.2466666666666663E-005     1.0906646377114058E-005
   6.2666666666666668E-005     1.1340774232922225E-005
   6.2866666666666659E-005     1.0672753076419174E-005
   6.3066666666666664E-005     8.7260942879021616E-006
   6.3266666666666655E-005     5.4261929848780460E-006
   6.3466666666666660E-005     8.2867430994343089E-007
   6.3666666666666665E-005    -4.8613566241618917E-006
   6.3866666666666656E-005    -1.1282769906305333E-005
   6.4066666666666661E-005    -1.7927375028737221E-005
   6.4266666666666666E-005    -2.4165949940678724E-005
   6.4466666666666657E-005    -2.9291285876160283E-005
   6.4666666666666662E-005    -3.2576506473852272E-005
   6.4866666666666667E-005    -3.3344996138039525E-005
   6.5066666666666658E-005    -3.1046687106728963E-005
   6.5266666666666663E-005    -2.5334056074834166E-005
   6.5466666666666654E-005    -1.6130263279846292E-005
   6.5666666666666659E-005    -3.6816409475546541E-006
   6.5866666666666664E-005     1.1412844086155347E-005
   6.6066666666666655E-005     2.8201365743517130E-005
   6.6266666666666660E-005     4.5412463695584484E-005
   6.6466666666666665E-005     6.1523476676564499E-005
   6.6666666666666656E-005     7.4862808472793408E-005
   6.6866666666666661E-005     8.3741403779595260E-005
   6.7066666666666666E-005     8.6605466910230248E-005
   6.7266666666666657E-005     8.2199396744611370E-005
   6.7466666666666662E-005     6.9725591984530136E-005
   6.7666666666666667E-005     4.8986112927756279E-005
   6.7866666666666658E-005     2.0490871298298005E-005
   6.8066666666666663E-005    -1.4482025951140496E-005
   6.8266666666666655E-005    -5.3885874934214736E-005
   6.8466666666666659E-005    -9.4973200092889293E-005
   6.8666666666666664E-005    -1.3443513391784513E-004
   6.8866666666666656E-005    -1.6860988628507369E-004
   6.9066666666666660E-005    -1.9375102898492406E-004
   6.9266666666666665E-005    -2.0634043233499317E-004
   6.9466666666666657E-005    -2.0342412226991631E-004
   6.9666666666666661E-005    -1.8294506722699790E-004
   6.9866666666666666E-005    -1.4404356961275538E-004
   7.0066666666666658E-005    -8.7295158255621739E-005
   7.0266666666666662E-005    -1.4857510715702961E-005
   7.0466666666666654E-005     6.9497612015177946E-005
   7.0666666666666659E-005     1.6048473294479000E-004
   7.0866666666666664E-005     2.5154510185678271E-004
   7.1066666666666655E-005     3.3522454559617605E-004
   7.1266666666666660E-005     4.0367319667161412E-004
   7.1466666666666665E-005     4.4924089023897943E-004
   7.1666666666666656E-005     4.6512943234018714E-004
   7.1866666666666661E-005     4.4605509228467350E-004
   7.2066666666666666E-005     3.8886791535496532E-004
   7.2266666666666657E-005     2.9307192746582013E-004
   7.2466666666666662E-005     1.6119281887322820E-004
   7.2666666666666667E-005    -1.0545355698657257E-006
   7.2866666666666658E-005    -1.8483450902194361E-004
   7.3066666666666663E-005    -3.7851642531163229E-004
   7.3266666666666654E-005    -5.6825990513907675E-004
   7.3466666666666659E-005    -7.3884237868270300E-004
   7.3666666666666664E-005    -8.7468868371404522E-004
   7.3866666666666655E-005    -9.6104499977657726E-004
   7.4066666666666660E-005    -9.8521891979149183E-004
   7.4266666666666665E-005    -9.3779651997770127E-004
   7.4466666666666656E-005    -8.1373825209188734E-004
   7.4666666666666661E-005    -6.1325685225282838E-004
   7.4866666666666666E-005    -3.4238509935504362E-004
   7.5066666666666657E-005    -1.3158877975810474E-005
   7.5266666666666662E-005     3.5663912911094336E-004
   7.5466666666666653E-005     7.4419897546683345E-004