  -3.3333333333333335E-005     0.0000000000000000     
  -3.3133333333333337E-005     0.0000000000000000     
  -3.2933333333333332E-005     0.0000000000000000     
  -3.2733333333333334E-005     0.0000000000000000     
  -3.2533333333333336E-005     0.0000000000000000     
  -3.2333333333333338E-005     0.0000000000000000     
  -3.2133333333333333E-005     0.0000000000000000     
  -3.1933333333333335E-005     0.0000000000000000     
  -3.1733333333333337E-005     0.0000000000000000     
  -3.1533333333333332E-005     0.0000000000000000     
  -3.1333333333333334E-005     0.0000000000000000     
  -3.1133333333333336E-005     0.0000000000000000     
  -3.0933333333333338E-005     0.0000000000000000     
  -3.0733333333333333E-005     0.0000000000000000     
  -3.0533333333333335E-005     0.0000000000000000     
  -3.0333333333333337E-005     0.0000000000000000     
  -3.0133333333333335E-005     0.0000000000000000     
  -2.9933333333333334E-005     0.0000000000000000     
  -2.9733333333333336E-005     0.0000000000000000     
  -2.9533333333333334E-005     0.0000000000000000     
  -2.9333333333333336E-005     0.0000000000000000     
  -2.9133333333333334E-005     0.0000000000000000     
  -2.8933333333333336E-005     0.0000000000000000     
  -2.8733333333333335E-005     0.0000000000000000     
  -2.8533333333333333E-005     0.0000000000000000     
  -2.8333333333333335E-005     0.0000000000000000     
  -2.8133333333333337E-005     0.0000000000000000     
  -2.7933333333333336E-005     0.0000000000000000     
  -2.7733333333333334E-005     0.0000000000000000     
  -2.7533333333333336E-005     0.0000000000000000     
  -2.7333333333333335E-005     0.0000000000000000     
  -2.7133333333333333E-005     0.0000000000000000     
  -2.6933333333333335E-005     0.0000000000000000     
  -2.6733333333333337E-005     0.0000000000000000     
  -2.6533333333333336E-005     0.0000000000000000     
  -2.6333333333333334E-005     0.0000000000000000     
  -2.6133333333333336E-005     0.0000000000000000     
  -2.5933333333333335E-005     0.0000000000000000     
  -2.5733333333333333E-005     0.0000000000000000     
  -2.5533333333333335E-005     0.0000000000000000     
  -2.5333333333333337E-005     0.0000000000000000     
  -2.5133333333333336E-005     0.0000000000000000     
  -2.4933333333333334E-005     0.0000000000000000     
  -2.4733333333333336E-005     0.0000000000000000     
  -2.4533333333333334E-005     0.0000000000000000     
  -2.4333333333333333E-005     0.0000000000000000     
  -2.4133333333333335E-005     0.0000000000000000     
  -2.3933333333333337E-005     0.0000000000000000     
  -2.3733333333333335E-005     0.0000000000000000     
  -2.3533333333333334E-005     0.0000000000000000     
  -2.3333333333333336E-005     0.0000000000000000     
  -2.3133333333333338E-005     0.0000000000000000     
  -2.2933333333333336E-005     0.0000000000000000     
  -2.2733333333333335E-005     0.0000000000000000     
  -2.2533333333333337E-005     0.0000000000000000     
  -2.2333333333333335E-005     0.0000000000000000     
  -2.2133333333333334E-005     0.0000000000000000     
  -2.1933333333333336E-005     0.0000000000000000     
  -2.1733333333333338E-005     0.0000000000000000     
  -2.1533333333333336E-005     0.0000000000000000     
  -2.1333333333333335E-005     0.0000000000000000     
  -2.1133333333333337E-005     0.0000000000000000     
  -2.0933333333333335E-005     0.0000000000000000     
  -2.0733333333333334E-005     0.0000000000000000     
  -2.0533333333333336E-005     0.0000000000000000     
  -2.0333333333333337E-005     0.0000000000000000     
  -2.0133333333333336E-005     0.0000000000000000     
  -1.9933333333333334E-005     0.0000000000000000     
  -1.9733333333333336E-005     0.0000000000000000     
  -1.9533333333333335E-005     0.0000000000000000     
  -1.9333333333333333E-005     0.0000000000000000     
  -1.9133333333333335E-005     0.0000000000000000     
  -1.8933333333333337E-005     0.0000000000000000     
  -1.8733333333333336E-005     0.0000000000000000     
  -1.8533333333333334E-005     0.0000000000000000     
  -1.8333333333333336E-005     0.0000000000000000     
  -1.8133333333333335E-005     0.0000000000000000     
  -1.7933333333333337E-005     0.0000000000000000     
  -1.7733333333333335E-005     0.0000000000000000     
  -1.7533333333333337E-005     0.0000000000000000     
  -1.7333333333333336E-005     0.0000000000000000     
  -1.7133333333333334E-005     0.0000000000000000     
  -1.6933333333333336E-005     0.0000000000000000     
  -1.6733333333333335E-005     0.0000000000000000     
  -1.6533333333333337E-005     0.0000000000000000     
  -1.6333333333333335E-005     0.0000000000000000     
  -1.6133333333333337E-005     0.0000000000000000     
  -1.5933333333333336E-005     0.0000000000000000     
  -1.5733333333333334E-005     0.0000000000000000     
  -1.5533333333333336E-005     0.0000000000000000     
  -1.5333333333333334E-005     0.0000000000000000     
  -1.5133333333333336E-005     0.0000000000000000     
  -1.4933333333333335E-005     0.0000000000000000     
  -1.4733333333333337E-005     0.0000000000000000     
  -1.4533333333333335E-005     0.0000000000000000     
  -1.4333333333333337E-005     0.0000000000000000     
  -1.4133333333333336E-005     0.0000000000000000     
  -1.3933333333333334E-005     0.0000000000000000     
  -1.3733333333333336E-005     0.0000000000000000     
  -1.3533333333333335E-005     0.0000000000000000     
  -1.3333333333333337E-005     0.0000000000000000     
  -1.3133333333333335E-005     0.0000000000000000     
  -1.2933333333333337E-005     0.0000000000000000     
  -1.2733333333333336E-005     0.0000000000000000     
  -1.2533333333333338E-005     0.0000000000000000     
  -1.2333333333333336E-005     0.0000000000000000     
  -1.2133333333333335E-005     0.0000000000000000     
  -1.1933333333333337E-005     0.0000000000000000     
  -1.1733333333333335E-005     0.0000000000000000     
  -1.1533333333333337E-005     0.0000000000000000     
  -1.1333333333333336E-005     0.0000000000000000     
  -1.1133333333333337E-005     0.0000000000000000     
  -1.0933333333333336E-005     0.0000000000000000     
  -1.0733333333333334E-005     0.0000000000000000     
  -1.0533333333333336E-005     0.0000000000000000     
  -1.0333333333333335E-005     0.0000000000000000     
  -1.0133333333333337E-005     0.0000000000000000     
  -9.9333333333333354E-006     0.0000000000000000     
  -9.7333333333333373E-006     0.0000000000000000     
  -9.5333333333333358E-006     0.0000000000000000     
  -9.3333333333333343E-006     0.0000000000000000     
  -9.1333333333333362E-006     0.0000000000000000     
  -8.9333333333333348E-006     0.0000000000000000     
  -8.7333333333333367E-006     0.0000000000000000     
  -8.5333333333333352E-006     0.0000000000000000     
  -8.3333333333333371E-006     0.0000000000000000     
  -8.1333333333333356E-006     0.0000000000000000     
  -7.9333333333333376E-006     0.0000000000000000     
  -7.7333333333333361E-006     0.0000000000000000     
  -7.5333333333333346E-006     0.0000000000000000     
  -7.3333333333333365E-006     0.0000000000000000     
  -7.1333333333333351E-006     0.0000000000000000     
  -6.9333333333333370E-006     0.0000000000000000     
  -6.7333333333333355E-006     0.0000000000000000     
  -6.5333333333333374E-006     0.0000000000000000     
  -6.3333333333333359E-006     0.0000000000000000     
  -6.1333333333333379E-006     0.0000000000000000     
  -5.9333333333333364E-006     0.0000000000000000     
  -5.7333333333333349E-006     1.8983056302162245E-041
  -5.5333333333333368E-006     1.8983056302162245E-041
  -5.3333333333333354E-006     1.8983056302162245E-041
  -5.1333333333333373E-006    -2.0616233802057188E-041
  -4.9333333333333358E-006    -2.5255264742921665E-040
  -4.7333333333333377E-006    -7.5347314037573904E-040
  -4.5333333333333362E-006    -1.4842898999179847E-039
  -4.3333333333333348E-006    -1.8721468878600253E-039
  -4.1333333333333367E-006    -1.8176198419428687E-039
  -3.9333333333333352E-006    -1.7926313160319498E-039
  -3.7333333333333371E-006     5.0940155006150678E-040
  -3.5333333333333356E-006     4.1190280207950501E-039
  -3.3333333333333376E-006     1.1446600661603278E-038
  -3.1333333333333361E-006     2.2187387743270741E-038
  -2.9333333333333346E-006     3.6106220709083983E-038
  -2.7333333333333365E-006     4.7902560067263138E-038
  -2.5333333333333384E-006     5.1785959153241972E-038
  -2.3333333333333336E-006     2.6645012951567055E-038
  -2.1333333333333355E-006    -2.0884235689951067E-038
  -1.9333333333333374E-006    -1.0603096881070383E-037
  -1.7333333333333393E-006    -2.3118246610119255E-037
  -1.5333333333333345E-006    -3.6699880615409403E-037
  -1.3333333333333364E-006    -4.9407440954468766E-037
  -1.1333333333333383E-006    -5.4307496575644090E-037
  -9.3333333333333343E-007    -4.2732624660784478E-037
  -7.3333333333333535E-007    -1.4675790639592045E-038
  -5.3333333333333726E-007     8.0495894856093830E-037
  -3.3333333333333918E-007     2.1072238034243217E-036
  -1.3333333333333432E-007     3.8185374080576507E-036
   6.6666666666663770E-008     5.6345107734739005E-036
   2.6666666666666185E-007     6.9157799737751138E-036
   4.6666666666666672E-007     6.6328555156013836E-036
   6.6666666666666480E-007     3.4197644764613248E-036
   8.6666666666666289E-007    -4.1867279581984078E-036
   1.0666666666666610E-006    -1.7254958455378461E-035
   1.2666666666666658E-006    -3.5675970638094029E-035
   1.4666666666666639E-006    -5.7157691425725232E-035
   1.6666666666666620E-006    -7.6185178431344323E-035
   1.8666666666666669E-006    -8.3325289402395406E-035
   2.0666666666666649E-006    -6.5434769153913741E-035
   2.2666666666666630E-006    -7.4516303078106317E-036
   2.4666666666666611E-006     1.0358977740366063E-034
   2.6666666666666660E-006     2.7199244656856201E-034
   2.8666666666666641E-006     4.8463648008457362E-034
   3.0666666666666622E-006     7.0147692176987311E-034
   3.2666666666666602E-006     8.4816947464878943E-034
   3.4666666666666651E-006     8.1516594004362495E-034
   3.6666666666666632E-006     4.6865652711937131E-034
   3.8666666666666613E-006    -3.2136654657461170E-034
   4.0666666666666661E-006    -1.6326982399789350E-033
   4.2666666666666642E-006    -3.4236443462820966E-033
   4.4666666666666623E-006    -5.4560134103752942E-033
   4.6666666666666604E-006    -7.2275821461856221E-033
   4.8666666666666652E-006    -7.9440015208232454E-033
   5.0666666666666633E-006    -6.5683618696331107E-033
   5.2666666666666614E-006    -1.9878489015255872E-033
   5.4666666666666663E-006     6.6742009150261482E-033
   5.6666666666666644E-006     1.9600777361610187E-032
   5.8666666666666624E-006     3.5725755843221933E-032
   6.0666666666666605E-006     5.2192656727338452E-032
   6.2666666666666654E-006     6.4011478429832234E-032
   6.4666666666666635E-006     6.4158035171618008E-032
   6.6666666666666616E-006     4.4383229848868487E-032
   6.8666666666666664E-006    -3.0470945794956256E-033
   7.0666666666666645E-006    -8.2606923778134502E-032
   7.2666666666666626E-006    -1.9194778333643357E-031
   7.4666666666666607E-006    -3.1808029877954591E-031
   7.6666666666666655E-006    -4.3429613249788293E-031
   7.8666666666666636E-006    -4.9923301415179922E-031
   8.0666666666666617E-006    -4.5972037134368448E-031
   8.2666666666666598E-006    -2.5893337926491747E-031
   8.4666666666666647E-006     1.4924614788442555E-031
   8.6666666666666627E-006     7.8003557755861810E-031
   8.8666666666666608E-006     1.5940215085813078E-030
   9.0666666666666657E-006     2.4745879151335872E-030
   9.2666666666666638E-006     3.2136537833597865E-030
   9.4666666666666619E-006     3.5147165071159331E-030
   9.6666666666666599E-006     3.0225748510403431E-030
   9.8666666666666648E-006     1.3870541337690546E-030
   1.0066666666666663E-005    -1.6371703587007215E-030
   1.0266666666666661E-005    -6.0613233337446889E-030
   1.0466666666666666E-005    -1.1522323971733911E-029
   1.0666666666666664E-005    -1.7163419365223122E-029
   1.0866666666666662E-005    -2.1579491663066055E-029
   1.1066666666666660E-005    -2.2877761912886323E-029
   1.1266666666666665E-005    -1.8901697417273206E-029
   1.1466666666666663E-005    -7.6489728822525810E-030
   1.1666666666666661E-005     1.2119802977926319E-029
   1.1866666666666666E-005     4.0136067916602077E-029
   1.2066666666666664E-005     7.3860422507135907E-029
   1.2266666666666662E-005     1.0788729882217791E-028
   1.2466666666666660E-005     1.3375696403724028E-028
   1.2666666666666665E-005     1.4043673635202134E-028
   1.2866666666666663E-005     1.1570107023165901E-028
   1.3066666666666661E-005     4.8534737747536793E-029
   1.3266666666666666E-005    -6.7505401398969276E-029
   1.3466666666666664E-005    -2.3030188029646894E-028
   1.3666666666666662E-005    -4.2521247610455239E-028
   1.3866666666666660E-005    -6.2210104087513008E-028
   1.4066666666666665E-005    -7.7457860163173452E-028
   1.4266666666666663E-005    -8.2274378915724918E-028
   1.4466666666666661E-005    -7.0051777210115017E-028
   1.4666666666666666E-005    -3.4812364475106580E-028
   1.4866666666666664E-005     2.7067511309376759E-028
   1.5066666666666662E-005     1.1482568622281106E-027
   1.5266666666666661E-005     2.2129476563885532E-027
   1.5466666666666665E-005     3.3136646575850517E-027
   1.5666666666666663E-005     4.2152661184259557E-027
   1.5866666666666662E-005     4.6108365119611189E-027
   1.6066666666666660E-005     4.1562626508926547E-027
   1.6266666666666665E-005     2.5299702435644541E-027
   1.6466666666666663E-005    -4.8360387067447434E-028
   1.6666666666666661E-005    -4.8942081954033750E-027
   1.6866666666666666E-005    -1.0404144095936579E-026
   1.7066666666666664E-005    -1.6326526726604550E-026
   1.7266666666666662E-005    -2.1550861959624788E-026
   1.7466666666666660E-005    -2.4585753405754812E-026
   1.7666666666666665E-005    -2.3705421644784751E-026
   1.7866666666666663E-005    -1.7216389159731627E-026
   1.8066666666666661E-005    -3.8420107879186495E-027
   1.8266666666666666E-005     1.6804159353869920E-026
   1.8466666666666664E-005     4.3717764094159875E-026
   1.8666666666666662E-005     7.4071432462732573E-026
   1.8866666666666660E-005     1.0297553718856799E-025
   1.9066666666666665E-005     1.2357154359955490E-025
   1.9266666666666663E-005     1.2758956317615867E-025
   1.9466666666666661E-005     1.0646170356354678E-025
   1.9666666666666666E-005     5.3005312340421998E-026
   1.9866666666666664E-005    -3.6425000645421784E-026
   2.0066666666666662E-005    -1.5956265923676649E-025
   2.0266666666666660E-005    -3.0603466408861604E-025
   2.0466666666666665E-005    -4.5589131267275809E-025
   2.0666666666666663E-005    -5.7949073283688834E-025
   2.0866666666666661E-005    -6.3936171712937371E-025
   2.1066666666666659E-005    -5.9452431286502876E-025
   2.1266666666666664E-005    -4.0744165472949464E-025
   2.1466666666666662E-005    -5.3300498916534838E-026
   2.1666666666666660E-005     4.6929975498048966E-025
   2.1866666666666665E-005     1.1278594450337499E-024
   2.2066666666666663E-005     1.8479478357207408E-024
   2.2266666666666661E-005     2.5103387147098857E-024
   2.2466666666666659E-005     2.9560983162488476E-024
   2.2666666666666664E-005     3.0019459627961536E-024
   2.2866666666666662E-005     2.4670654864387140E-024
   2.3066666666666660E-005     1.2106895061559760E-024
   2.3266666666666665E-005    -8.2271297010702534E-025
   2.3466666666666663E-005    -3.5566657665537103E-024
   2.3666666666666661E-005    -6.7431438200378006E-024
   2.3866666666666660E-005    -9.9411998360282537E-024
   2.4066666666666664E-005    -1.2525443800304094E-023
   2.4266666666666662E-005    -1.3734750904662869E-023
   2.4466666666666661E-005    -1.2767638204814868E-023
   2.4666666666666665E-005    -8.9239586931624226E-024
   2.4866666666666663E-005    -1.7831606261336748E-024
   2.5066666666666662E-005     8.6017163620191872E-024
   2.5266666666666660E-005     2.1526457194069835E-023
   2.5466666666666665E-005     3.5515774637282118E-023
   2.5666666666666663E-005     4.8307028582363646E-023
   2.5866666666666661E-005     5.6980642423783708E-023
   2.6066666666666666E-005     5.8268014641072468E-023
   2.6266666666666664E-005     4.9044726061701209E-023
   2.6466666666666662E-005     2.6983732049631603E-023
   2.6666666666666660E-005    -8.6972182086488144E-024
   2.6866666666666665E-005    -5.6502377923968011E-023
   2.7066666666666663E-005    -1.1208466886300198E-022
   2.7266666666666661E-005    -1.6800068597475945E-022
   2.7466666666666666E-005    -2.1396113573903955E-022
   2.7666666666666664E-005    -2.3770985601155133E-022
   2.7866666666666662E-005    -2.2659332489500423E-022
   2.8066666666666667E-005    -1.6977367028101362E-022
   2.8266666666666658E-005    -6.0900605641213232E-023
   2.8466666666666663E-005     9.9094419811464604E-023
   2.8666666666666668E-005     2.9955926702899560E-022
   2.8866666666666659E-005     5.1861580294414295E-022
   2.9066666666666664E-005     7.2319309698861858E-022
   2.9266666666666669E-005     8.7112853969848689E-022
   2.9466666666666660E-005     9.1566434144480912E-022
   2.9666666666666665E-005     8.1233814892286473E-022
   2.9866666666666656E-005     5.2782553142921052E-022
   3.0066666666666661E-005     4.9786637987806262E-023
   3.0266666666666666E-005    -6.0373462044783520E-022
   3.0466666666666657E-005    -1.3772098367731302E-021
   3.0666666666666662E-005    -2.1748743612140433E-021
   3.0866666666666667E-005    -2.8642643249110048E-021
   3.1066666666666658E-005    -3.2874838451688634E-021
   3.1266666666666663E-005    -3.2807260218272894E-021
   3.1466666666666668E-005    -2.7012579428897382E-021
   3.1666666666666659E-005    -1.4594955107196150E-021
   3.1866666666666664E-005     4.4787847590470386E-022
   3.2066666666666656E-005     2.9092792986940017E-021
   3.2266666666666660E-005     5.6805476782714225E-021
   3.2466666666666665E-005     8.3848403920341624E-021
   3.2666666666666657E-005     1.0535651580931178E-020
   3.2866666666666661E-005     1.1586216416101332E-020
   3.3066666666666666E-005     1.1004928916049607E-020
   3.3266666666666658E-005     8.3717426316162626E-021
   3.3466666666666662E-005     3.4853129665570447E-021
   3.3666666666666667E-005    -3.5343699193924726E-021
   3.3866666666666659E-005    -1.2166968506560822E-020
   3.4066666666666664E-005    -2.1457232470960946E-020
   3.4266666666666668E-005    -3.0044321099191847E-020
   3.4466666666666660E-005    -3.6269256792309696E-020
   3.4666666666666665E-005    -3.8365603161042588E-020
   3.4866666666666656E-005    -3.4725681544463244E-020
   3.5066666666666661E-005    -2.4219420685093019E-020
   3.5266666666666666E-005    -6.5272243122816730E-021
   3.5466666666666657E-005     1.7565519565161443E-020
   3.5666666666666662E-005     4.5973388015532392E-020
   3.5866666666666667E-005     7.5277317932884282E-020
   3.6066666666666658E-005     1.0090498043017819E-019
   3.6266666666666663E-005     1.1755664678811616E-019
   3.6466666666666668E-005     1.1987557661932411E-019
   3.6666666666666659E-005     1.0332055048570780E-019
   3.6866666666666664E-005     6.5152113525660723E-020
   3.7066666666666669E-005     5.3999884540235006E-021
   3.7266666666666660E-005    -7.2354972504869864E-020
   3.7466666666666665E-005    -1.6056666217611732E-019
   3.7666666666666656E-005    -2.4784909333212188E-019
   3.7866666666666661E-005    -3.1977085976457819E-019
   3.8066666666666666E-005    -3.6037243871307389E-019
   3.8266666666666657E-005    -3.5435498271707165E-019
   3.8466666666666662E-005    -2.8976353396730629E-019
   3.8666666666666667E-005    -1.6085739245160398E-019
   3.8866666666666658E-005     2.9254097461419869E-020
   3.9066666666666663E-005     2.6670748821536866E-019
   3.9266666666666668E-005     5.2622350210171672E-019
   3.9466666666666659E-005     7.7212961723637176E-019
   3.9666666666666664E-005     9.6135163204738468E-019
   3.9866666666666655E-005     1.0484082519466945E-018
   4.0066666666666660E-005     9.9212578087008132E-019
   4.0266666666666665E-005     7.6343052517615303E-019
   4.0466666666666656E-005     3.5323347726294360E-019
   4.0666666666666661E-005    -2.2085469851883733E-019
   4.0866666666666666E-005    -9.1037313143173974E-019
   4.1066666666666657E-005    -1.6357691701484250E-018
   4.1266666666666662E-005    -2.2911145202644684E-018
   4.1466666666666667E-005    -2.7542952497226935E-018
   4.1666666666666658E-005    -2.9024281365692911E-018
   4.1866666666666663E-005    -2.6313480167506236E-018
   4.2066666666666668E-005    -1.8770495831124889E-018
   4.2266666666666660E-005    -6.3611855665356301E-019
   4.2466666666666664E-005     1.0184022663594169E-018
   4.2666666666666656E-005     2.9294169520068652E-018
   4.2866666666666661E-005     4.8597451481321814E-018
   4.3066666666666665E-005     6.5099045069130081E-018
   4.3266666666666657E-005     7.5502777303155495E-018
   4.3466666666666662E-005     7.6660612897469405E-018
   4.3666666666666666E-005     6.6109247578170776E-018
   4.3866666666666658E-005     4.2629298064103405E-018
   4.4066666666666663E-005     6.7429345425509389E-019
   4.4266666666666667E-005    -3.8944565830907777E-018
   4.4466666666666659E-005    -8.9651653204962908E-018
   4.4666666666666664E-005    -1.3865063228785551E-017
   4.4866666666666655E-005    -1.7786190174537984E-017
   4.5066666666666660E-005    -1.9880468656835574E-017
   4.5266666666666665E-005    -1.9383781165544949E-017
   4.5466666666666656E-005    -1.5756204458354459E-017
   4.5666666666666661E-005    -8.8199605075851712E-018
   4.5866666666666666E-005     1.1273401692568956E-018
   4.6066666666666657E-005     1.3247832183682308E-017
   4.6266666666666662E-005     2.6168437813942657E-017
   4.6466666666666667E-005     3.8071153366661816E-017
   4.6666666666666658E-005     4.6874000958183069E-017
   4.6866666666666663E-005     5.0494910412064839E-017
   4.7066666666666668E-005     4.7175962967942024E-017
   4.7266666666666659E-005     3.5830791497681210E-017
   4.7466666666666664E-005     1.6365978951943953E-017
   4.7666666666666655E-005    -1.0079673263944254E-017
   4.7866666666666660E-005    -4.1033623885741119E-017
   4.8066666666666665E-005    -7.2772241816811192E-017
   4.8266666666666656E-005    -1.0061538756397947E-016
   4.8466666666666661E-005    -1.1943375655970685E-016
   4.8666666666666666E-005    -1.2433679540111403E-016
   4.8866666666666657E-005    -1.1147415248747933E-016
   4.9066666666666662E-005    -7.8851527733386863E-017
   4.9266666666666667E-005    -2.7038643328575290E-017
   4.9466666666666658E-005     4.0362354855728753E-017
   4.9666666666666663E-005     1.1661039086026987E-016
   4.9866666666666655E-005     1.9217325015778414E-016
   5.0066666666666659E-005     2.5557162450142313E-016
   5.0266666666666664E-005     2.9469446866505393E-016
   5.0466666666666656E-005     2.9848354818332771E-016
   5.0666666666666660E-005     2.5880873550951805E-016
   5.0866666666666665E-005     1.7229046396373853E-016
   5.1066666666666657E-005     4.1785378727435290E-017
   5.1266666666666661E-005    -1.2275480704182011E-016
   5.1466666666666666E-005    -3.0430407397677423E-016
   5.1666666666666658E-005    -4.7983345318696899E-016
   5.1866666666666662E-005    -6.2248072406134760E-016
   5.2066666666666667E-005    -7.0471255407713677E-016
   5.2266666666666659E-005    -7.0220562039007942E-016
   5.2466666666666664E-005    -5.9801687940665686E-016
   5.2666666666666655E-005    -3.8648848645150986E-016
   5.2866666666666660E-005    -7.6270048376676269E-017
   5.3066666666666665E-005     3.0814607031914118E-016
   5.3266666666666656E-005     7.2687474902583867E-016
   5.3466666666666661E-005     1.1273757361935613E-015
   5.3666666666666666E-005     1.4495070512758128E-015
   5.3866666666666657E-005     1.6325954185860193E-015
   5.4066666666666662E-005     1.6238845894501717E-015
   5.4266666666666667E-005     1.3874143905685058E-015
   5.4466666666666658E-005     9.1215927415481516E-016
   5.4666666666666663E-005     2.1815271322140732E-016
   5.4866666666666668E-005    -6.4060534318305594E-016
   5.5066666666666659E-005    -1.5774248826460647E-015
   5.5266666666666664E-005    -2.4789284801243427E-015
   5.5466666666666655E-005    -3.2157670768502408E-015
   5.5666666666666660E-005    -3.6573840998082748E-015
   5.5866666666666665E-005    -3.6894994169281234E-015
   5.6066666666666656E-005    -3.2324028063590398E-015
   5.6266666666666661E-005    -2.2577229718970860E-015
   5.6466666666666666E-005    -8.0117176216984321E-016
   5.6666666666666657E-005     1.0311022538962557E-015
   5.6866666666666662E-005     3.0644407984150783E-015
   5.7066666666666667E-005     5.0669741094068228E-015
   5.7266666666666658E-005     6.7703253910577668E-015
   5.7466666666666663E-005     7.8985266775279939E-015
   5.7666666666666654E-005     8.2026982440076935E-015
   5.7866666666666659E-005     7.4979198912547387E-015
   5.8066666666666664E-005     5.6978928667173954E-015
   5.8266666666666655E-005     2.8425876386852138E-015
   5.8466666666666660E-005    -8.8575768289177637E-016
   5.8666666666666665E-005    -5.1621674452829704E-015
   5.8866666666666656E-005    -9.5364995580178295E-015
   5.9066666666666661E-005    -1.3469690562169619E-014
   5.9266666666666666E-005    -1.6387075103208704E-014
   5.9466666666666657E-005    -1.7744815935850916E-014
   5.9666666666666662E-005    -1.7103254390001439E-014
   5.9866666666666667E-005    -1.4199175877033992E-014
   6.0066666666666659E-005    -9.0079061558014827E-015
   6.0266666666666663E-005    -1.7859657813056501E-015
   6.0466666666666655E-005     6.9140424558387960E-015
   6.0666666666666660E-005     1.6262580783597131E-014
   6.0866666666666664E-005     2.5209483570536760E-014
   6.1066666666666656E-005     3.2576562924991721E-014
   6.1266666666666661E-005     3.7181136896531239E-014
   6.1466666666666665E-005     3.7980506326750608E-014
   6.1666666666666657E-005     3.4223337230386187E-014
   6.1866666666666662E-005     2.5590721008154595E-014
   6.2066666666666666E-005     1.2308180029420056E-014
   6.2266666666666658E-005    -4.7897621664689840E-015
   6.2466666666666663E-005    -2.4258161866561507E-014
   6.2666666666666668E-005    -4.4114159459770366E-014
   6.2866666666666659E-005    -6.1987135177264077E-014
   6.3066666666666664E-005    -7.5341529409826411E-014
   6.3266666666666655E-005    -8.1757789311798583E-014
   6.3466666666666660E-005    -7.9247394099890332E-014
   6.3666666666666665E-005    -6.6569728592372781E-014
   6.3866666666666656E-005    -4.3512703325040911E-014
   6.4066666666666661E-005    -1.1096871387419202E-014
   6.4266666666666666E-005     2.8335011457790329E-014
   6.4466666666666657E-005     7.1173865060500286E-014
   6.4666666666666662E-005     1.1276406980108611E-013
   6.4866666666666667E-005     1.4778928470130825E-013
   6.5066666666666658E-005     1.7080625847251742E-013
   6.5266666666666663E-005     1.7688768063484409E-013
   6.5466666666666654E-005     1.6231475045624474E-013
   6.5666666666666659E-005     1.2524380014678319E-013
   6.5866666666666664E-005     6.6260993958817192E-014
   6.6066666666666655E-005    -1.1262420926757206E-014
   6.6266666666666660E-005    -1.0109261101779146E-013
   6.6466666666666665E-005    -1.9439184284284527E-013
   6.6666666666666656E-005    -2.8034069709907956E-013
   6.6866666666666661E-005    -3.4711154447648567E-013
   6.7066666666666666E-005    -3.8313592944403944E-013
   6.7266666666666657E-005    -3.7856243949910046E-013
   6.7466666666666662E-005    -3.2676026356831205E-013
   6.7666666666666667E-005    -2.2569309441085692E-013
   6.7866666666666658E-005    -7.8973229538325065E-014
   6.8066666666666663E-005     1.0358804975468645E-013
   6.8266666666666655E-005     3.0608797646189492E-013
   6.8466666666666659E-005     5.0739830497734958E-013
   6.8666666666666664E-005     6.8281539302806871E-013
   6.8866666666666656E-005     8.0642900562545770E-013
   6.9066666666666660E-005     8.5404658448578215E-013
   6.9266666666666665E-005     8.0641408135697461E-013
   6.9466666666666657E-005     6.5239630256711021E-013
   6.9666666666666661E-005     3.9172606169837291E-013
   6.9866666666666666E-005     3.6919384179773429E-014
   7.0066666666666658E-005    -3.8601407075727958E-013
   7.0266666666666662E-005    -8.3835326479993078E-013
   7.0466666666666654E-005    -1.2710980950882110E-012
   7.0666666666666659E-005    -1.6290392120846968E-012
   7.0866666666666664E-005    -1.8562545349373752E-012
   7.1066666666666655E-005    -1.9026189168598764E-012
   7.1266666666666660E-005    -1.7307272066311734E-012
   7.1466666666666665E-005    -1.3224809303900379E-012
   7.1666666666666656E-005    -6.8450969511976657E-013
   7.1866666666666661E-005     1.4840020105713358E-013
   7.2066666666666666E-005     1.1125995301304937E-012
   7.2266666666666657E-005     2.1181201331257194E-012
   7.2466666666666662E-005     3.0547037490462875E-012
   7.2666666666666667E-005     3.8011867386507476E-012
   7.2866666666666658E-005     4.2376975026663345E-012
   7.3066666666666663E-005     4.2597190258811527E-012
   7.3266666666666654E-005     3.7926994220390051E-012
   7.3466666666666659E-005     2.8056215819763145E-012
   7.3666666666666664E-005     1.3218148593070073E-012
   7.3866666666666655E-005    -5.7466778208513591E-013
   7.4066666666666660E-005    -2.7385443879242692E-012
   7.4266666666666665E-005    -4.9696627356834011E-012
   7.4466666666666656E-005    -7.0265990410239500E-012
   7.4666666666666661E-005    -8.6471126447948394E-012
   7.4866666666666666E-005    -9.5742397058102544E-012
   7.5066666666666657E-005    -9.5859933627114702E-012
   7.5266666666666662E-005    -8.5259125140622443E-012
   7.5466666666666653E-005    -6.3311847584646123E-012