  -3.3333333333333335E-005     0.0000000000000000     
  -3.3133333333333337E-005     0.0000000000000000     
  -3.2933333333333332E-005     0.0000000000000000     
  -3.2733333333333334E-005     0.0000000000000000     
  -3.2533333333333336E-005     0.0000000000000000     
  -3.2333333333333338E-005     0.0000000000000000     
  -3.2133333333333333E-005     0.0000000000000000     
  -3.1933333333333335E-005     0.0000000000000000     
  -3.1733333333333337E-005     0.0000000000000000     
  -3.1533333333333332E-005     0.0000000000000000     
  -3.1333333333333334E-005     0.0000000000000000     
  -3.1133333333333336E-005     0.0000000000000000     
  -3.0933333333333338E-005     0.0000000000000000     
  -3.0733333333333333E-005     0.0000000000000000     
  -3.0533333333333335E-005     0.0000000000000000     
  -3.0333333333333337E-005     0.0000000000000000     
  -3.0133333333333335E-005     0.0000000000000000     
  -2.9933333333333334E-005     1.1166946108463132E-039
  -2.9733333333333336E-005     1.5145933159188439E-038
  -2.9533333333333334E-005     3.9917956069829036E-039
  -2.9333333333333336E-005    -1.1804179730648888E-036
  -2.9133333333333334E-005    -1.4745787368745008E-035
  -2.8933333333333336E-005    -1.1156388440041668E-034
  -2.8733333333333335E-005    -6.2167814698196743E-034
  -2.8533333333333333E-005    -2.6911302524010923E-033
  -2.8333333333333335E-005    -8.9812428723493661E-033
  -2.8133333333333337E-005    -2.0700541121368486E-032
  -2.7933333333333336E-005    -1.1920694126738180E-032
  -2.7733333333333334E-005     1.8333500484292158E-031
  -2.7533333333333336E-005     1.2318039493374820E-030
  -2.7333333333333335E-005     5.1747405688241882E-030
  -2.7133333333333333E-005     1.6880289609475567E-029
  -2.6933333333333335E-005     4.4610247116748480E-029
  -2.6733333333333337E-005     9.3111643492112680E-029
  -2.6533333333333336E-005     1.3078650420217082E-028
  -2.6333333333333334E-005    -6.1422250910866532E-030
  -2.6133333333333336E-005    -8.1970479873309324E-028
  -2.5933333333333335E-005    -3.4606787104407622E-027
  -2.5733333333333333E-005    -9.8987584980402473E-027
  -2.5533333333333335E-005    -2.2099024187239963E-026
  -2.5333333333333337E-005    -3.8264365018926157E-026
  -2.5133333333333336E-005    -4.3015253040977506E-026
  -2.4933333333333334E-005     1.1269694668893073E-026
  -2.4733333333333336E-005     2.2900865867399947E-025
  -2.4533333333333334E-005     7.8174962412638072E-025
  -2.4333333333333333E-005     1.8501541199889121E-024
  -2.4133333333333335E-005     3.3970044665608618E-024
  -2.3933333333333337E-005     4.6426538303694982E-024
  -2.3733333333333335E-005     3.1833681994778677E-024
  -2.3533333333333334E-005    -6.0082443728446515E-024
  -2.3333333333333336E-005    -3.0788659174454475E-023
  -2.3133333333333338E-005    -7.9281359936436348E-023
  -2.2933333333333336E-005    -1.5151054067476269E-022
  -2.2733333333333335E-005    -2.2226261075574984E-022
  -2.2533333333333337E-005    -2.1548932619806996E-022
  -2.2333333333333335E-005     2.0329667717842267E-023
  -2.2133333333333334E-005     7.1003429221911781E-022
  -2.1933333333333336E-005     2.0762729097635763E-021
  -2.1733333333333338E-005     4.1310254340271050E-021
  -2.1533333333333336E-005     6.2938443867949273E-021
  -2.1333333333333335E-005     6.8830574630722241E-021
  -2.1133333333333337E-005     2.7105038627076715E-021
  -2.0933333333333335E-005    -1.0714309943295933E-020
  -2.0733333333333334E-005    -3.7591324943585520E-020
  -2.0533333333333336E-005    -7.8023692371472593E-020
  -2.0333333333333337E-005    -1.2171979111821697E-019
  -2.0133333333333336E-005    -1.4046623741584926E-019
  -1.9933333333333334E-005    -8.3353301507077728E-020
  -1.9733333333333336E-005     1.1783548158885845E-019
  -1.9533333333333335E-005     5.2311905898450336E-019
  -1.9333333333333333E-005     1.1301089610824868E-018
  -1.9133333333333335E-005     1.7917458387139838E-018
  -1.8933333333333337E-005     2.1270996185314026E-018
  -1.8733333333333336E-005     1.4776433159771901E-018
  -1.8533333333333334E-005    -1.0047178266636598E-018
  -1.8333333333333336E-005    -6.0346982114135895E-018
  -1.8133333333333335E-005    -1.3563565867761148E-017
  -1.7933333333333337E-005    -2.1883024883261610E-017
  -1.7733333333333335E-005    -2.6719975196543817E-017
  -1.7533333333333337E-005    -2.0875366649122371E-017
  -1.7333333333333336E-005     4.7583439986757911E-018
  -1.7133333333333334E-005     5.7886223037885207E-017
  -1.6933333333333336E-005     1.3867066957274812E-016
  -1.6733333333333335E-005     2.3131349503196999E-016
  -1.6533333333333337E-005     2.9579569798175364E-016
  -1.6333333333333335E-005     2.6460874520824607E-016
  -1.6133333333333337E-005     5.1386532791599540E-017
  -1.5933333333333336E-005    -4.2135767091160533E-016
  -1.5733333333333334E-005    -1.1715057501643570E-015
  -1.5533333333333336E-005    -2.0882504294187727E-015
  -1.5333333333333334E-005    -2.8632372599828108E-015
  -1.5133333333333336E-005    -2.9575484004404601E-015
  -1.4933333333333335E-005    -1.6542534379196904E-015
  -1.4733333333333337E-005     1.7522054374305686E-015
  -1.4533333333333335E-005     7.6009834108042264E-015
  -1.4333333333333337E-005     1.5370909994382634E-014
  -1.4133333333333336E-005     2.3163499505002082E-014
  -1.3933333333333334E-005     2.7385941465771343E-014
  -1.3733333333333336E-005     2.2946689355243944E-014
  -1.3533333333333335E-005     4.2929040845268050E-015
  -1.3333333333333337E-005    -3.2500989202739189E-014
  -1.3133333333333335E-005    -8.6689601501318401E-014
  -1.2933333333333337E-005    -1.4944641254150929E-013
  -1.2733333333333336E-005    -2.0127574509789350E-013
  -1.2533333333333338E-005    -2.1196024356971928E-013
  -1.2333333333333336E-005    -1.4492882482828063E-013
  -1.2133333333333335E-005     3.2567030460552463E-014
  -1.1933333333333337E-005     3.3349606737987856E-013
  -1.1733333333333335E-005     7.3169765670209143E-013
  -1.1533333333333337E-005     1.1444990664850871E-012
  -1.1333333333333336E-005     1.4254354280788262E-012
  -1.1133333333333337E-005     1.3765697874025699E-012
  -1.0933333333333336E-005     7.8843226862190272E-013
  -1.0733333333333334E-005    -4.8987115422897226E-013
  -1.0533333333333336E-005    -2.4576072009165150E-012
  -1.0333333333333335E-005    -4.8665708623854606E-012
  -1.0133333333333337E-005    -7.1556325430920371E-012
  -9.9333333333333354E-006    -8.4572721932109083E-012
  -9.7333333333333373E-006    -7.7157937452960908E-012
  -9.5333333333333358E-006    -3.9396897441911185E-012
  -9.3333333333333343E-006     3.4239486026778633E-012
  -9.1333333333333362E-006     1.4054107394559060E-011
  -8.9333333333333348E-006     2.6374306624075621E-011
  -8.7333333333333367E-006     3.7381682471137086E-011
  -8.5333333333333352E-006     4.2853723321812378E-011
  -8.3333333333333371E-006     3.8058909976005358E-011
  -8.1333333333333356E-006     1.8994638851294946E-011
  -7.9333333333333376E-006    -1.5984275198124024E-011
  -7.7333333333333361E-006    -6.4474745552854981E-011
  -7.5333333333333346E-006    -1.1877490278931613E-010
  -7.3333333333333365E-006    -1.6566997209557032E-010
  -7.1333333333333351E-006    -1.8779779450516909E-010
  -6.9333333333333370E-006    -1.6689041049721183E-010
  -6.7333333333333355E-006    -8.8743288149375306E-011
  -6.5333333333333374E-006     5.0823869428655220E-011
  -6.3333333333333359E-006     2.4035823695619817E-010
  -6.1333333333333379E-006     4.4931094905452901E-010
  -5.9333333333333364E-006     6.2860897346185563E-010
  -5.7333333333333349E-006     7.1672378561645986E-010
  -5.5333333333333368E-006     6.5167891980514697E-010
  -5.3333333333333354E-006     3.8790749235974466E-010
  -5.1333333333333373E-006    -8.4917519836089049E-011
  -4.9333333333333358E-006    -7.2556787940897177E-010
  -4.7333333333333377E-006    -1.4328681359893373E-009
  -4.5333333333333362E-006    -2.0503555132400706E-009
  -4.3333333333333348E-006    -2.3873262277872681E-009
  -4.1333333333333367E-006    -2.2562827113663128E-009
  -3.9333333333333352E-006    -1.5223811418757933E-009
  -3.7333333333333371E-006    -1.5584350094236508E-010
  -3.5333333333333356E-006     1.7253922982261195E-009
  -3.3333333333333376E-006     3.8369291666107732E-009
  -3.1333333333333361E-006     5.7453481514490546E-009
  -2.9333333333333346E-006     6.9284451858476309E-009
  -2.7333333333333365E-006     6.8758583089040171E-009
  -2.5333333333333384E-006     5.2167034888672676E-009
  -2.3333333333333336E-006     1.8502237968540020E-009
  -2.1333333333333355E-006    -2.9519756556246539E-009
  -1.9333333333333374E-006    -8.5049934307978403E-009
  -1.7333333333333393E-006    -1.3757516297990821E-008
  -1.5333333333333345E-006    -1.7438414396209137E-008
  -1.3333333333333364E-006    -1.8293686272703155E-008
  -1.1333333333333383E-006    -1.5380183694891839E-008
  -9.3333333333333343E-007    -8.3606865954417523E-009
  -7.3333333333333535E-007     2.2687650617585096E-009
  -5.3333333333333726E-007     1.5088442218634898E-008
  -3.3333333333333918E-007     2.7854278934396271E-008
  -1.3333333333333432E-007     3.7807236764066392E-008
   6.6666666666663770E-008     4.2168428861566658E-008
   2.6666666666666185E-007     3.8747490076405998E-008
   4.6666666666666672E-007     2.6550299182482994E-008
   6.6666666666666480E-007     6.2488042765939103E-009
   8.6666666666666289E-007    -1.9620581261616336E-008
   1.0666666666666610E-006    -4.6828266588852242E-008
   1.2666666666666658E-006    -7.0026183989396551E-008
   1.4666666666666639E-006    -8.3675439437106817E-008
   1.6666666666666620E-006    -8.3187981202585321E-008
   1.8666666666666669E-006    -6.6070703199140508E-008
   2.0666666666666649E-006    -3.2822677389294121E-008
   2.2666666666666630E-006     1.2652443292148839E-008
   2.4666666666666611E-006     6.3289496610440622E-008
   2.6666666666666660E-006     1.0981558904613245E-007
   2.8666666666666641E-006     1.4232300637405816E-007
   3.0666666666666622E-006     1.5222009644948327E-007
   3.2666666666666602E-006     1.3420020923243258E-007
   3.4666666666666651E-006     8.7811236302314688E-008
   3.6666666666666632E-006     1.8234090893289673E-008
   3.8666666666666613E-006    -6.4005756812104047E-008
   4.0666666666666661E-006    -1.4447797741974395E-007
   4.2666666666666642E-006    -2.0728574648061414E-007
   4.4666666666666623E-006    -2.3811604204964871E-007
   4.6666666666666604E-006    -2.2733441432926223E-007
   4.8666666666666652E-006    -1.7247730212006581E-007
   5.0666666666666633E-006    -7.9546560193340018E-008
   5.2666666666666614E-006     3.7302675522970734E-008
   5.4666666666666663E-006     1.5779132915114267E-007
   5.6666666666666644E-006     2.5901835937763352E-007
   5.8666666666666624E-006     3.1984867623996635E-007
   6.0666666666666605E-006     3.2535011879502088E-007
   6.2666666666666654E-006     2.7034713225634452E-007
   6.4666666666666635E-006     1.6125864581373943E-007
   6.6666666666666616E-006     1.5678254158831431E-008
   6.8666666666666664E-006    -1.4040822748831253E-007
   7.0666666666666645E-006    -2.7736898634859400E-007
   7.2666666666666626E-006    -3.6777774553985216E-007
   7.4666666666666607E-006    -3.9219900652806646E-007
   7.6666666666666655E-006    -3.4365340087268744E-007
   7.8666666666666636E-006    -2.2970171274893321E-007
   8.0666666666666617E-006    -7.1528714699786910E-008
   8.2666666666666598E-006     9.9971521077249749E-008
   8.4666666666666647E-006     2.5043689892376861E-007
   8.6666666666666627E-006     3.4936020272667363E-007
   8.8666666666666608E-006     3.7691338332853919E-007
   9.0666666666666657E-006     3.2869110440998274E-007
   9.2666666666666638E-006     2.1715693009611166E-007
   9.4666666666666619E-006     6.9249163390384816E-008
   9.6666666666666599E-006    -7.9537974289137892E-008
   9.8666666666666648E-006    -1.9342801137493190E-007
   1.0066666666666663E-005    -2.4517035817102415E-007
   1.0266666666666661E-005    -2.2328738567188583E-007
   1.0466666666666666E-005    -1.3586605832344332E-007
   1.0666666666666664E-005    -9.6722504440495705E-009
   1.0866666666666662E-005     1.1560330394555719E-007
   1.1066666666666660E-005     1.9698356076669786E-007
   1.1266666666666665E-005     1.9968964061375258E-007
   1.1466666666666663E-005     1.0776587853104508E-007
   1.1666666666666661E-005    -6.8941529624692935E-008
   1.1866666666666666E-005    -2.9365075779629316E-007
   1.2066666666666664E-005    -5.0837066945882704E-007
   1.2266666666666662E-005    -6.4593303758309337E-007
   1.2466666666666660E-005    -6.4616743580386951E-007
   1.2666666666666665E-005    -4.7277051246151101E-007
   1.2866666666666663E-005    -1.2681533583357924E-007
   1.3066666666666661E-005     3.4686523738510079E-007
   1.3266666666666666E-005     8.6297163674907990E-007
   1.3466666666666664E-005     1.3092873197222321E-006
   1.3666666666666662E-005     1.5687213964111085E-006
   1.3866666666666660E-005     1.5458602653026424E-006
   1.4066666666666665E-005     1.1924794676005855E-006
   1.4266666666666663E-005     5.2599533225649908E-007
   1.4466666666666661E-005    -3.6431664024676432E-007
   1.4666666666666666E-005    -1.3263705696680026E-006
   1.4866666666666664E-005    -2.1695595346184348E-006
   1.5066666666666662E-005    -2.7008237623822008E-006
   1.5266666666666661E-005    -2.7660080386815549E-006
   1.5466666666666665E-005    -2.2880738692795871E-006
   1.5666666666666663E-005    -1.2934509493818550E-006
   1.5866666666666662E-005     8.0580025719669284E-008
   1.6066666666666660E-005     1.6012456174290832E-006
   1.6266666666666665E-005     2.9776403114834651E-006
   1.6466666666666663E-005     3.9145312567242270E-006
   1.6666666666666661E-005     4.1729618516934696E-006
   1.6866666666666666E-005     3.6255749145011203E-006
   1.7066666666666664E-005     2.2945149217401717E-006
   1.7266666666666662E-005     3.6228552035155414E-007
   1.7466666666666660E-005    -1.8492660116923235E-006
   1.7666666666666665E-005    -3.9304324668822614E-006
   1.7866666666666663E-005    -5.4577067703229110E-006
   1.8066666666666661E-005    -6.0771689125375677E-006
   1.8266666666666666E-005    -5.5809397224049488E-006
   1.8466666666666664E-005    -3.9605809601221026E-006
   1.8666666666666662E-005    -1.4248441114543122E-006
   1.8866666666666660E-005     1.6244486103090874E-006
   1.9066666666666665E-005     4.6564791151153726E-006
   1.9266666666666663E-005     7.1052784777241574E-006
   1.9466666666666661E-005     8.4764678708252648E-006
   1.9666666666666666E-005     8.4463640490462917E-006
   1.9866666666666664E-005     6.9333036243151934E-006
   2.0066666666666662E-005     4.1255524856645247E-006
   2.0266666666666660E-005     4.5814811245474641E-007
   2.0466666666666665E-005    -3.4590560753305140E-006
   2.0666666666666663E-005    -6.9499231702169710E-006
   2.0866666666666661E-005    -9.3970622083072124E-006
   2.1066666666666659E-005    -1.0359185382143733E-005
   2.1266666666666664E-005    -9.6573391140873215E-006
   2.1466666666666662E-005    -7.4121136792929928E-006
   2.1666666666666660E-005    -4.0233578008319978E-006
   2.1866666666666665E-005    -9.5373173933932289E-008
   2.2066666666666663E-005     3.6782808099635120E-006
   2.2266666666666661E-005     6.6477350941373620E-006
   2.2466666666666659E-005     8.3308666867778852E-006
   2.2666666666666664E-005     8.5033160894912950E-006
   2.2866666666666662E-005     7.2360754174093347E-006
   2.3066666666666660E-005     4.8730510118934371E-006
   2.3266666666666665E-005     1.9535128943310327E-006
   2.3466666666666663E-005    -9.0398262126054533E-007
   2.3666666666666661E-005    -3.1314079460165608E-006
   2.3866666666666660E-005    -4.3270457062030353E-006
   2.4066666666666664E-005    -4.3325338695529892E-006
   2.4266666666666662E-005    -3.2550034497078966E-006
   2.4466666666666661E-005    -1.4302891875753704E-006
   2.4666666666666665E-005     6.6359318123314288E-007
   2.4866666666666663E-005     2.5222478582512833E-006
   2.5066666666666662E-005     3.7327967404210136E-006
   2.5266666666666660E-005     4.0661150860151990E-006
   2.5466666666666665E-005     3.5215202093001008E-006
   2.5666666666666663E-005     2.3131800241958379E-006
   2.5866666666666661E-005     8.0147296098731794E-007
   2.6066666666666666E-005    -6.1384841845780525E-007
   2.6266666666666664E-005    -1.6118060216415255E-006
   2.6466666666666662E-005    -2.0488450292197415E-006
   2.6666666666666660E-005    -2.0105782426007635E-006
   2.6866666666666665E-005    -1.7995322376815568E-006
   2.7066666666666663E-005    -1.8569497986683450E-006
   2.7266666666666661E-005    -2.6333590053075724E-006
   2.7466666666666666E-005    -4.4369833236725668E-006
   2.7666666666666664E-005    -7.2974561878624113E-006
   2.7866666666666662E-005    -1.0882456269543005E-005
   2.8066666666666667E-005    -1.4495969909590166E-005
   2.8266666666666658E-005    -1.7170387342503944E-005
   2.8466666666666663E-005    -1.7843671098800180E-005
   2.8666666666666668E-005    -1.5591848600842374E-005
   2.8866666666666659E-005    -9.8708480959371997E-006
   2.9066666666666664E-005    -7.1430461952999954E-007
   2.9266666666666669E-005     1.1162312360364488E-005
   2.9466666666666660E-005     2.4385731268724581E-005
   2.9666666666666665E-005     3.7087598591949560E-005
   2.9866666666666656E-005     4.7187838775926354E-005
   3.0066666666666661E-005     5.2753471488324208E-005
   3.0266666666666666E-005     5.2367800885674126E-005
   3.0466666666666657E-005     4.5436924752295711E-005
   3.0666666666666662E-005     3.2367191391416208E-005
   3.0866666666666667E-005     1.4568157430518871E-005
   3.1066666666666658E-005    -5.7326270103829846E-006
   3.1266666666666663E-005    -2.5839916597095605E-005
   3.1466666666666668E-005    -4.3048345921104748E-005
   3.1666666666666659E-005    -5.5124374711387796E-005
   3.1866666666666664E-005    -6.0719607537677778E-005
   3.2066666666666656E-005    -5.9630543180919802E-005
   3.2266666666666660E-005    -5.2845402795335233E-005
   3.2466666666666665E-005    -4.2357367729652224E-005
   3.2666666666666657E-005    -3.0768885516585081E-005
   3.2866666666666661E-005    -2.0754271383409223E-005
   3.3066666666666666E-005    -1.4479701954330142E-005
   3.3266666666666658E-005    -1.3093809953483114E-005
   3.3466666666666662E-005    -1.6394837413775665E-005
   3.3666666666666667E-005    -2.2752317443036421E-005
   3.3866666666666659E-005    -2.9316952159519265E-005
   3.4066666666666664E-005    -3.2499466016213013E-005
   3.4266666666666668E-005    -2.8647482044904907E-005
   3.4466666666666660E-005    -1.4808622216526347E-005
   3.4666666666666665E-005     1.0554253707392322E-005
   3.4866666666666656E-005     4.7028549895372128E-005
   3.5066666666666661E-005     9.2006321911760608E-005
   3.5266666666666666E-005     1.4079113050178833E-004
   3.5466666666666657E-005     1.8706417837081776E-004
   3.5666666666666662E-005     2.2365716794003464E-004
   3.5866666666666667E-005     2.4352775812482735E-004
   3.6066666666666658E-005     2.4079784864550392E-004
   3.6266666666666663E-005     2.1170215504864046E-004
   3.6466666666666668E-005     1.5530505415339027E-004
   3.6666666666666659E-005     7.3876571883425404E-005
   3.6866666666666664E-005    -2.7132608666572056E-005
   3.7066666666666669E-005    -1.3952085287866891E-004
   3.7266666666666660E-005    -2.5311806099531485E-004
   3.7466666666666665E-005    -3.5682330357138616E-004
   3.7666666666666656E-005    -4.3977018991054131E-004
   3.7866666666666661E-005    -4.9248150491175272E-004
   3.8066666666666666E-005    -5.0788299276939423E-004
   3.8266666666666657E-005    -4.8206997199454497E-004
   3.8466666666666662E-005    -4.1475493444790901E-004
   3.8666666666666667E-005    -3.0936347994083984E-004
   3.8866666666666658E-005    -1.7278348968087186E-004
   3.9066666666666663E-005    -1.4804160632212971E-005
   3.9266666666666668E-005     1.5269432671903395E-004
   3.9466666666666659E-005     3.1672563270188612E-004
   3.9666666666666664E-005     4.6427331449315474E-004
   3.9866666666666655E-005     5.8337484472351943E-004
   4.0066666666666660E-005     6.6413115004213073E-004
   4.0266666666666665E-005     6.9956476963866070E-004
   4.0466666666666656E-005     6.8625596185298537E-004
   4.0666666666666661E-005     6.2469744212967219E-004
   4.0866666666666666E-005     5.1932186400493444E-004
   4.1066666666666657E-005     3.7817900444138809E-004
   4.1266666666666662E-005     2.1226712172661423E-004
   4.1466666666666667E-005     3.4557561517499559E-005
   4.1666666666666658E-005    -1.4121220688394353E-004
   4.1866666666666663E-005    -3.0186634698244107E-004
   4.2066666666666668E-005    -4.3610149730844555E-004
   4.2266666666666660E-005    -5.3562987572719142E-004
   4.2466666666666664E-005    -5.9600851572159410E-004
   4.2666666666666656E-005    -6.1703369533674056E-004
   4.2866666666666661E-005    -6.0262513248778905E-004
   4.3066666666666665E-005    -5.6018486000679660E-004
   4.3266666666666657E-005    -4.9948435276601683E-004
   4.3466666666666662E-005    -4.3120219401650213E-004
   4.3666666666666666E-005    -3.6529022403932078E-004
   4.3866666666666658E-005    -3.0938405464281144E-004
   4.4066666666666663E-005    -2.6748367052940761E-004
   4.4266666666666667E-005    -2.3910924582885498E-004
   4.4466666666666659E-005    -2.1908809417406266E-004
   4.4666666666666664E-005    -1.9805459764844744E-004
   4.4866666666666655E-005    -1.6365444574367467E-004
   4.5066666666666660E-005    -1.0234987665796508E-004
   4.5266666666666665E-005    -1.6340939406056385E-006
   4.5466666666666656E-005     1.4760580950257064E-004
   4.5666666666666661E-005     3.4887944113580157E-004
   4.5866666666666666E-005     5.9834417880000074E-004
   4.6066666666666657E-005     8.8379394986878835E-004
   4.6266666666666662E-005     1.1845951024311229E-003
   4.6466666666666667E-005     1.4726841103661051E-003
   4.6666666666666658E-005     1.7146270057155379E-003
   4.6866666666666663E-005     1.8746172734297713E-003
   4.7066666666666668E-005     1.9181731797529818E-003
   4.7266666666666659E-005     1.8161954342702457E-003
   4.7466666666666664E-005     1.5489787914597826E-003
   4.7666666666666655E-005     1.1097377470214837E-003
   4.7866666666666660E-005     5.0722067251173257E-004
   4.8066666666666665E-005    -2.3295844660237253E-004
   4.8266666666666656E-005    -1.0685386247372241E-003
   4.8466666666666661E-005    -1.9425192163347261E-003
   4.8666666666666666E-005    -2.7867329026299405E-003
   4.8866666666666657E-005    -3.5268925437444377E-003
   4.9066666666666662E-005    -4.0887577122972335E-003
   4.9266666666666667E-005    -4.4049220811678532E-003
   4.9466666666666658E-005    -4.4216270534439056E-003
   4.9666666666666663E-005    -4.1049473159596190E-003
   4.9866666666666655E-005    -3.4457133635483902E-003
   5.0066666666666659E-005    -2.4626061848441578E-003
   5.0266666666666664E-005    -1.2029942706547356E-003
   5.0466666666666656E-005     2.5872399008640277E-004
   5.0666666666666660E-005     1.8252953528994083E-003
   5.0866666666666665E-005     3.3830899097053039E-003
   5.1066666666666657E-005     4.8104453843093899E-003
   5.1266666666666661E-005     5.9872447772249780E-003
   5.1466666666666666E-005     6.8049601451834682E-003
   5.1666666666666658E-005     7.1763153991545904E-003
   5.1866666666666662E-005     7.0437227715430470E-003
   5.2066666666666667E-005     6.3857262678598354E-003
   5.2266666666666659E-005     5.2208170962053223E-003
   5.2466666666666664E-005     3.6081912884349879E-003
   5.2666666666666655E-005     1.6452577874803782E-003
   5.2866666666666660E-005    -5.3804280954772472E-004
   5.3066666666666665E-005    -2.7877899185590437E-003
   5.3266666666666656E-005    -4.9369468714845349E-003
   5.3466666666666661E-005    -6.8177853098536807E-003
   5.3666666666666666E-005    -8.2749635920375021E-003
   5.3866666666666657E-005    -9.1782762395378210E-003
   5.4066666666666662E-005    -9.4340697351203463E-003
   5.4266666666666667E-005    -8.9943825322514933E-003
   5.4466666666666658E-005    -7.8629905236507897E-003
   5.4666666666666663E-005    -6.0977348694772789E-003
   5.4866666666666668E-005    -3.8087527956833134E-003
   5.5066666666666659E-005    -1.1525161332250843E-003
   5.5266666666666664E-005     1.6780944912060227E-003
   5.5466666666666655E-005     4.4671581869430094E-003
   5.5666666666666660E-005     6.9916810989731955E-003
   5.5866666666666665E-005     9.0390750082070086E-003
   5.6066666666666656E-005     1.0424865524508100E-002
   5.6266666666666661E-005     1.1009220574149095E-002
   5.6466666666666666E-005     1.0710896397137327E-002
   5.6666666666666657E-005     9.5172812468173450E-003
   5.6866666666666662E-005     7.4894427596533608E-003
   5.7066666666666667E-005     4.7614008835653466E-003
   5.7266666666666658E-005     1.5332768792039918E-003
   5.7466666666666663E-005    -1.9415682124627612E-003
   5.7666666666666654E-005    -5.3747481266025344E-003
   5.7866666666666659E-005    -8.4652746742996804E-003
   5.8066666666666664E-005    -1.0924584655716297E-002
   5.8266666666666655E-005    -1.2502216834204598E-002
   5.8466666666666660E-005    -1.3009968774796574E-002
   5.8666666666666665E-005    -1.2342323519927006E-002
   5.8866666666666656E-005    -1.0491103131829188E-002
   5.9066666666666661E-005    -7.5526223876000182E-003
   5.9266666666666666E-005    -3.7261749818346601E-003
   5.9466666666666657E-005     6.9665068099930907E-004
   5.9666666666666662E-005     5.3515545961826524E-003
   5.9866666666666667E-005     9.8289026247286131E-003
   6.0066666666666659E-005     1.3707021254246252E-002
   6.0266666666666663E-005     1.6588850910109962E-002
   6.0466666666666655E-005     1.8138920021153193E-002
   6.0666666666666660E-005     1.8117344274869256E-002
   6.0866666666666664E-005     1.6407604291264949E-002
   6.1066666666666656E-005     1.3035218364715908E-002
   6.1266666666666661E-005     8.1750356541780804E-003
   6.1466666666666665E-005     2.1458169165266823E-003
   6.1666666666666657E-005    -4.6082231402739893E-003
   6.1866666666666662E-005    -1.1548017438601184E-002
   6.2066666666666666E-005    -1.8080403668447109E-002
   6.2266666666666658E-005    -2.3606010752876813E-002
   6.2466666666666663E-005    -2.7570483093368556E-002
   6.2666666666666668E-005    -2.9514771214218777E-002
   6.2866666666666659E-005    -2.9120083713482035E-002
   6.3066666666666664E-005    -2.6243383953380307E-002
   6.3266666666666655E-005    -2.0939960732314765E-002
   6.3466666666666660E-005    -1.3470517949086136E-002
   6.3666666666666665E-005    -4.2914652363996494E-003
   6.3866666666666656E-005     5.9715325870268636E-003
   6.4066666666666661E-005     1.6565349333473929E-002
   6.4266666666666666E-005     2.6663763972004321E-002
   6.4466666666666657E-005     3.5430499508635714E-002
   6.4666666666666662E-005     4.2086169792550233E-002
   6.4866666666666667E-005     4.5973856227417557E-002
   6.5066666666666658E-005     4.6617939799148023E-002
   6.5266666666666663E-005     4.3771093503988577E-002
   6.5466666666666654E-005     3.7445159374724576E-002
   6.5666666666666659E-005     2.7922670418639963E-002
   6.5866666666666664E-005     1.5747283467945100E-002
   6.6066666666666655E-005     1.6929202445212840E-003
   6.6266666666666660E-005    -1.3286709826032621E-002
   6.6466666666666665E-005    -2.8125001969417644E-002
   6.6666666666666656E-005    -4.1720957716652414E-002
   6.6866666666666661E-005    -5.3023385717993962E-002
   6.7066666666666666E-005    -6.1114132152868525E-002
   6.7266666666666657E-005    -6.5283475798928417E-002
   6.7466666666666662E-005    -6.5091253229568144E-002
   6.7666666666666667E-005    -6.0408195162028631E-002
   6.7866666666666658E-005    -5.1433542538713822E-002
   6.8066666666666663E-005    -3.8686812921520014E-002
   6.8266666666666655E-005    -2.2973876961537947E-002
   6.8466666666666659E-005    -5.3296608751468941E-003
   6.8666666666666664E-005     1.3058088693620035E-002
   6.8866666666666656E-005     3.0937861067749373E-002
   6.9066666666666660E-005     4.7088908339570267E-002
   6.9266666666666665E-005     6.0413395473897860E-002
   6.9466666666666657E-005     7.0018547540250720E-002
   6.9666666666666661E-005     7.5281996494601697E-002
   6.9866666666666666E-005     7.5895146365473204E-002
   7.0066666666666658E-005     7.1881233385165555E-002
   7.0266666666666662E-005     6.3587092559489758E-002
   7.0466666666666654E-005     5.1649825124674593E-002
   7.0666666666666659E-005     3.6941708325194611E-002
   7.0866666666666664E-005     2.0498350062059707E-002
   7.1066666666666655E-005     3.4363764652251324E-003
   7.1266666666666660E-005    -1.3132521324276180E-002
   7.1466666666666665E-005    -2.8184311159195050E-002
   7.1666666666666656E-005    -4.0855764051313748E-002
   7.1866666666666661E-005    -5.0502749708570979E-002
   7.2066666666666666E-005    -5.6739724607744735E-002
   7.2266666666666657E-005    -5.9458114909034424E-002
   7.2466666666666662E-005    -5.8822834172582897E-002
   7.2666666666666667E-005    -5.5247861019268707E-002
   7.2866666666666658E-005    -4.9353162894367565E-002
   7.3066666666666663E-005    -4.1906456513514351E-002
   7.3266666666666654E-005    -3.3754238576395174E-002
   7.3466666666666659E-005    -2.5747096677047797E-002
   7.3666666666666664E-005    -1.8664618285921589E-002
   7.3866666666666655E-005    -1.3145248649736660E-002
   7.4066666666666660E-005    -9.6261342879120013E-003
   7.4266666666666665E-005    -8.2974499415872788E-003
   7.4466666666666656E-005    -9.0749445246484164E-003
   7.4666666666666661E-005    -1.1593343930428750E-002
   7.4866666666666666E-005    -1.5222081689573385E-002
   7.5066666666666657E-005    -1.9103429351924727E-002
   7.5266666666666662E-005    -2.2211672415536898E-002
   7.5466666666666653E-005    -2.3430441316459896E-002