  -3.3333333333333335E-005     0.0000000000000000     
  -3.3133333333333337E-005     0.0000000000000000     
  -3.2933333333333332E-005     0.0000000000000000     
  -3.2733333333333334E-005     0.0000000000000000     
  -3.2533333333333336E-005     0.0000000000000000     
  -3.2333333333333338E-005     0.0000000000000000     
  -3.2133333333333333E-005    -5.5274275355958181E-014
  -3.1933333333333335E-005    -5.9363897347227404E-013
  -3.1733333333333337E-005    -3.2818111143694096E-012
  -3.1533333333333332E-005    -1.2228976273663731E-011
  -3.1333333333333334E-005    -3.3594861923270609E-011
  -3.1133333333333336E-005    -6.8653553168806295E-011
  -3.0933333333333338E-005    -9.2543415173910883E-011
  -3.0733333333333333E-005    -1.1982691561430801E-011
  -3.0533333333333335E-005     3.9468466713648564E-010
  -3.0333333333333337E-005     1.5286815115031202E-009
  -3.0133333333333335E-005     3.9525300921163929E-009
  -2.9933333333333334E-005     8.2083507397208250E-009
  -2.9733333333333336E-005     1.4370853095697643E-008
  -2.9533333333333334E-005     2.1282800373077817E-008
  -2.9333333333333336E-005     2.5555175141689536E-008
  -2.9133333333333334E-005     2.0636086938104971E-008
  -2.8933333333333336E-005    -3.4808153725136061E-009
  -2.8733333333333335E-005    -5.9124570822425803E-008
  -2.8533333333333333E-005    -1.5759403123731278E-007
  -2.8333333333333335E-005    -3.0312470867328935E-007
  -2.8133333333333337E-005    -4.8450508833738382E-007
  -2.7933333333333336E-005    -6.6587582654894472E-007
  -2.7733333333333334E-005    -7.7963725667621939E-007
  -2.7533333333333336E-005    -7.2553911552860318E-007
  -2.7333333333333335E-005    -3.8036581612609586E-007
  -2.7133333333333333E-005     3.7839528738757380E-007
  -2.6933333333333335E-005     1.6342332229615268E-006
  -2.6733333333333337E-005     3.3822690505921001E-006
  -2.6533333333333336E-005     5.4777110172480389E-006
  -2.6333333333333334E-005     7.5957476327023537E-006
  -2.6133333333333336E-005     9.2193490107432448E-006
  -2.5933333333333335E-005     9.6707007775294271E-006
  -2.5733333333333333E-005     8.1966486558102840E-006
  -2.5533333333333335E-005     4.1085677312073900E-006
  -2.5333333333333337E-005    -3.0361947592883046E-006
  -2.5133333333333336E-005    -1.3238192742857842E-005
  -2.4933333333333334E-005    -2.5883364702887765E-005
  -2.4733333333333336E-005    -3.9637831153342860E-005
  -2.4533333333333334E-005    -5.2450596635432074E-005
  -2.4333333333333333E-005    -6.1692239298019054E-005
  -2.4133333333333335E-005    -6.4437239296071449E-005
  -2.3933333333333337E-005    -5.7872319827273373E-005
  -2.3733333333333335E-005    -3.9788078180999509E-005
  -2.3533333333333334E-005    -9.0908147043556711E-006
  -2.3333333333333336E-005     3.3740148987443665E-005
  -2.3133333333333338E-005     8.6325164351999645E-005
  -2.2933333333333336E-005     1.4425299507017230E-004
  -2.2733333333333335E-005     2.0119392997503839E-004
  -2.2533333333333337E-005     2.4928261327102611E-004
  -2.2333333333333335E-005     2.7977102482212065E-004
  -2.2133333333333334E-005     2.8392597730644723E-004
  -2.1933333333333336E-005     2.5411922808299430E-004
  -2.1733333333333338E-005     1.8503001842427001E-004
  -2.1533333333333336E-005     7.4850061370869436E-005
  -2.1333333333333335E-005    -7.3649624660953699E-005
  -2.1133333333333337E-005    -2.5235593255210163E-004
  -2.0933333333333335E-005    -4.4753371031018482E-004
  -2.0733333333333334E-005    -6.4019648091262059E-004
  -2.0533333333333336E-005    -8.0725170305629497E-004
  -2.0333333333333337E-005    -9.2346318148802363E-004
  -2.0133333333333336E-005    -9.6415652627881553E-004
  -1.9933333333333334E-005    -9.0845589091926335E-004
  -1.9733333333333336E-005    -7.4270191769182836E-004
  -1.9533333333333335E-005    -4.6359287513011630E-004
  -1.9333333333333333E-005    -8.0539230770533538E-005
  -1.9133333333333335E-005     3.8325116382076553E-004
  -1.8933333333333337E-005     8.9132498560487374E-004
  -1.8733333333333336E-005     1.3963459974790987E-003
  -1.8533333333333334E-005     1.8441944827546140E-003
  -1.8333333333333336E-005     2.1794639107168014E-003
  -1.8133333333333335E-005     2.3517804045279276E-003
  -1.7933333333333337E-005     2.3222003185068398E-003
  -1.7733333333333335E-005     2.0688724916878365E-003
  -1.7533333333333337E-005     1.5911926513223255E-003
  -1.7333333333333336E-005     9.1182596311200508E-004
  -1.7133333333333334E-005     7.6208603922415412E-005
  -1.6933333333333336E-005    -8.5057222983598419E-004
  -1.6733333333333335E-005    -1.7893135709895944E-003
  -1.6533333333333337E-005    -2.6541484266310992E-003
  -1.6333333333333335E-005    -3.3611723581824199E-003
  -1.6133333333333337E-005    -3.8373300005317352E-003
  -1.5933333333333336E-005    -4.0285599080194532E-003
  -1.5733333333333334E-005    -3.9062209932698919E-003
  -1.5533333333333336E-005    -3.4709509950745171E-003
  -1.5333333333333334E-005    -2.7533520409911780E-003
  -1.5133333333333336E-005    -1.8112445820837940E-003
  -1.4933333333333335E-005    -7.2364652279432193E-004
  -1.4733333333333337E-005     4.1791864772073315E-004
  -1.4533333333333335E-005     1.5197697712230679E-003
  -1.4333333333333337E-005     2.4967493839727728E-003
  -1.4133333333333336E-005     3.2817803651899193E-003
  -1.3933333333333334E-005     3.8329098440274996E-003
  -1.3733333333333336E-005     4.1367658437364372E-003
  -1.3533333333333335E-005     4.2078433100545751E-003
  -1.3333333333333337E-005     4.0836712704528820E-003
  -1.3133333333333335E-005     3.8165612474090095E-003
  -1.2933333333333337E-005     3.4632007951928829E-003
  -1.2733333333333336E-005     3.0737354957096619E-003
  -1.2533333333333338E-005     2.6820913220490694E-003
  -1.2333333333333336E-005     2.2991356084825251E-003
  -1.2133333333333335E-005     1.9098557189466340E-003
  -1.1933333333333337E-005     1.4751538239630667E-003
  -1.1733333333333335E-005     9.3818659788408559E-004
  -1.1533333333333337E-005     2.3454300227964087E-004
  -1.1333333333333336E-005    -6.9498045335640189E-004
  -1.1133333333333337E-005    -1.8906099279533675E-003
  -1.0933333333333336E-005    -3.3606098970812674E-003
  -1.0733333333333334E-005    -5.0708481991635877E-003
  -1.0533333333333336E-005    -6.9385000284833444E-003
  -1.0333333333333335E-005    -8.8311512973099637E-003
  -1.0133333333333337E-005    -1.0572106450490063E-002
  -9.9333333333333354E-006    -1.1952150241682830E-002
  -9.7333333333333373E-006    -1.2747333749919829E-002
  -9.5333333333333358E-006    -1.2741667241922185E-002
  -9.3333333333333343E-006    -1.1752871877674919E-002
  -9.1333333333333362E-006    -9.6587243755769277E-003
  -8.9333333333333348E-006    -6.4210952245267530E-003
  -8.7333333333333367E-006    -2.1046313006698220E-003
  -8.5333333333333352E-006     3.1127369096907113E-003
  -8.3333333333333371E-006     8.9397078644181584E-003
  -8.1333333333333356E-006     1.4983202245915598E-002
  -7.9333333333333376E-006     2.0771735371846432E-002
  -7.7333333333333361E-006     2.5789357341363141E-002
  -7.5333333333333346E-006     2.9517749543412658E-002
  -7.3333333333333365E-006     3.1483041144687390E-002
  -7.1333333333333351E-006     3.1303282608653282E-002
  -6.9333333333333370E-006     2.8732226075414841E-002
  -6.7333333333333355E-006     2.3695184351102870E-002
  -6.5333333333333374E-006     1.6313224673732328E-002
  -6.3333333333333359E-006     6.9127057329767504E-003
  -6.1333333333333379E-006    -3.9818324326249977E-003
  -5.9333333333333364E-006    -1.5672253471775345E-002
  -5.7333333333333349E-006    -2.7328364971576799E-002
  -5.5333333333333368E-006    -3.8044475325938597E-002
  -5.3333333333333354E-006    -4.6907562938638930E-002
  -5.1333333333333373E-006    -5.3072215373967335E-002
  -4.9333333333333358E-006    -5.5836371281950417E-002
  -4.7333333333333377E-006    -5.4711095835466843E-002
  -4.5333333333333362E-006    -4.9477500808578538E-002
  -4.3333333333333348E-006    -4.0224539635879984E-002
  -4.1333333333333367E-006    -2.7362706223208660E-002
  -3.9333333333333352E-006    -1.1610839474773147E-002
  -3.7333333333333371E-006     6.0442780451633333E-003
  -3.5333333333333356E-006     2.4413050684736148E-002
  -3.3333333333333376E-006     4.2187944892482156E-002
  -3.1333333333333361E-006     5.8041003287653471E-002
  -2.9333333333333346E-006     7.0725710858457122E-002
  -2.7333333333333365E-006     7.9174420272116311E-002
  -2.5333333333333384E-006     8.2583136447493113E-002
  -2.3333333333333336E-006     8.0476658121697561E-002
  -2.1333333333333355E-006     7.2748968823065391E-002
  -1.9333333333333374E-006     5.9675839350755690E-002
  -1.7333333333333393E-006     4.1899032163075847E-002
  -1.5333333333333345E-006     2.0383710496669847E-002
  -1.3333333333333364E-006    -3.6472075097950946E-003
  -1.1333333333333383E-006    -2.8796228734923879E-002
  -9.3333333333333343E-007    -5.3585033571905756E-002
  -7.3333333333333535E-007    -7.6550997757343378E-002
  -5.3333333333333726E-007    -9.6338448681882224E-002
  -3.3333333333333918E-007   -0.11177735762548488     
  -1.3333333333333432E-007   -0.12194351859251287     
   6.6666666666663770E-008   -0.12619643545027212     
   2.6666666666666185E-007   -0.12419380048339640     
   4.6666666666666672E-007   -0.11588447525294707     
   6.6666666666666480E-007   -0.10148410417547679     
   8.6666666666666289E-007    -8.1439637513206292E-002
   1.0666666666666610E-006    -5.6389671863233543E-002
   1.2666666666666658E-006    -2.7127169648442542E-002
   1.4666666666666639E-006     5.4302434852019979E-003
   1.6666666666666620E-006     4.0259672575431012E-002
   1.8666666666666669E-006     7.6241951374609832E-002
   2.0666666666666649E-006    0.11216254382324797     
   2.2666666666666630E-006    0.14670906558671712     
   2.4666666666666611E-006    0.17847112257263392     
   2.6666666666666660E-006    0.20594847369835176     
   2.8666666666666641E-006    0.22757285334748070     
   3.0666666666666622E-006    0.24174778320696863     
   3.2666666666666602E-006    0.24690857546787620     
   3.4666666666666651E-006    0.24160266136476605     
   3.6666666666666632E-006    0.22458864075403789     
   3.8666666666666613E-006    0.19495001264549738     
   4.0666666666666661E-006    0.15221711528108942     
   4.2666666666666642E-006     9.6490145142979891E-002
   4.4666666666666623E-006     2.8553348779211452E-002
   4.6666666666666604E-006    -5.0029654943106197E-002
   4.8666666666666652E-006   -0.13685007709465702     
   5.0666666666666633E-006   -0.22862632123720261     
   5.2666666666666614E-006   -0.32122277635148305     
   5.4666666666666663E-006   -0.40971828879683070     
   5.6666666666666644E-006   -0.48852531171853897     
   5.8666666666666624E-006   -0.55155500302860982     
   6.0666666666666605E-006   -0.59242190612396972     
   6.2666666666666654E-006   -0.60467597589682687     
   6.4666666666666635E-006   -0.58205123449332508     
   6.6666666666666616E-006   -0.51871806448165292     
   6.8666666666666664E-006   -0.40952732499769973     
   7.0666666666666645E-006   -0.25023667238286734     
   7.2666666666666626E-006    -3.7710032660004444E-002
   7.4666666666666607E-006    0.22991402391704219     
   7.6666666666666655E-006    0.55309321170925219     
   7.8666666666666636E-006    0.93079351049879544     
   8.0666666666666617E-006     1.3604487744284861     
   8.2666666666666598E-006     1.8379696152883298     
   8.4666666666666647E-006     2.3578068302359196     
   8.6666666666666627E-006     2.9130697192335075     
   8.8666666666666608E-006     3.4957019077095106     
   9.0666666666666657E-006     4.0967046211588087     
   9.2666666666666638E-006     4.7064150943063963     
   9.4666666666666619E-006     5.3148179926663586     
   9.6666666666666599E-006     5.9118923256103466     
   9.8666666666666648E-006     6.4879720035279611     
   1.0066666666666663E-005     7.0341174239300805     
   1.0266666666666661E-005     7.5424737149845544     
   1.0466666666666666E-005     8.0066146426350606     
   1.0666666666666664E-005     8.4218408582757309     
   1.0866666666666662E-005     8.7854323308285078     
   1.1066666666666660E-005     9.0968224739016037     
   1.1266666666666665E-005     9.3576908644285197     
   1.1466666666666663E-005     9.5719455880160922     
   1.1666666666666661E-005     9.7455951447359936     
   1.1866666666666666E-005     9.8864901893470805     
   1.2066666666666664E-005     10.003945161520557     
   1.2266666666666662E-005     10.108247108459006     
   1.2466666666666660E-005     10.210053948173288     
   1.2666666666666665E-005     10.319724140519586     
   1.2866666666666663E-005     10.446601760383105     
   1.3066666666666661E-005     10.598281089701702     
   1.3266666666666666E-005     10.779904563716560     
   1.3466666666666664E-005     10.993519135640105     
   1.3666666666666662E-005     11.237534815495229     
   1.3866666666666660E-005     11.506319446259166     
   1.4066666666666665E-005     11.789959224641235     
   1.4266666666666663E-005     12.074207429896337     
   1.4466666666666661E-005     12.340644267884219     
   1.4666666666666666E-005     12.567056586558852     
   1.4866666666666664E-005     12.728021530199811     
   1.5066666666666662E-005     12.795693395497958     
   1.5266666666666661E-005     12.740745034804899     
   1.5466666666666665E-005     12.533428378097222     
   1.5666666666666663E-005     12.144695663875080     
   1.5866666666666662E-005     11.547317962861214     
   1.6066666666666660E-005     10.716925337305629     
   1.6266666666666665E-005     9.6329296718966013     
   1.6466666666666663E-005     8.2792439414995265     
   1.6666666666666661E-005     6.6447823869477194     
   1.6866666666666666E-005     4.7236962207346505     
   1.7066666666666664E-005     2.5153427857662045     
   1.7266666666666662E-005     2.3983503979620124E-002
   1.7466666666666660E-005    -2.7417636875329512     
   1.7666666666666665E-005    -5.7696835030075402     
   1.7866666666666663E-005    -9.0448994185633040     
   1.8066666666666661E-005    -12.550920845786575     
   1.8266666666666666E-005    -16.270733509196873     
   1.8466666666666664E-005    -20.187886760556484     
   1.8666666666666662E-005    -24.287486051510868     
   1.8866666666666660E-005    -28.557021555920286     
   1.9066666666666665E-005    -32.987026616115905     
   1.9266666666666663E-005    -37.571446708304137     
   1.9466666666666661E-005    -42.307739830261319     
   1.9666666666666666E-005    -47.196713708159649     
   1.9866666666666664E-005    -52.242066917330781     
   2.0066666666666662E-005    -57.449635123493458     
   2.0266666666666660E-005    -62.826505079390827     
   2.0466666666666665E-005    -68.379871339367043     
   2.0666666666666663E-005    -74.115822623155935     
   2.0866666666666661E-005    -80.038054992898338     
   2.1066666666666659E-005    -86.146577351245782     
   2.1266666666666664E-005    -92.436491777499839     
   2.1466666666666662E-005    -98.896855415179672     
   2.1666666666666660E-005    -105.50975678377473     
   2.1866666666666665E-005    -112.24961797890694     
   2.2066666666666663E-005    -119.08272643959592     
   2.2266666666666661E-005    -125.96708988094137     
   2.2466666666666659E-005    -132.85267609643586     
   2.2666666666666664E-005    -139.68194569788275     
   2.2866666666666662E-005    -146.39068819712730     
   2.3066666666666660E-005    -152.90919180388272     
   2.3266666666666665E-005    -159.16365601161044     
   2.3466666666666663E-005    -165.07776630697657     
   2.3666666666666661E-005    -170.57439535378242     
   2.3866666666666660E-005    -175.57738871215349     
   2.4066666666666664E-005    -180.01328389582682     
   2.4266666666666662E-005    -183.81289174306505     
   2.4466666666666661E-005    -186.91281181423244     
   2.4666666666666665E-005    -189.25667522434395     
   2.4866666666666663E-005    -190.79614095788426     
   2.5066666666666662E-005    -191.49160421341577     
   2.5266666666666660E-005    -191.31252396757739     
   2.5466666666666665E-005    -190.23755212757098     
   2.5666666666666663E-005    -188.25427591346482     
   2.5866666666666661E-005    -185.35871792099650     
   2.6066666666666666E-005    -181.55464276655906     
   2.6266666666666664E-005    -176.85273514213043     
   2.6466666666666662E-005    -171.26963996783408     
   2.6666666666666660E-005    -164.82709414945055     
   2.6866666666666665E-005    -157.55107290611949     
   2.7066666666666663E-005    -149.47118692230060     
   2.7266666666666661E-005    -140.62007339574205     
   2.7466666666666666E-005    -131.03316274764271     
   2.7666666666666664E-005    -120.74856320090586     
   2.7866666666666662E-005    -109.80715622726987     
   2.8066666666666667E-005    -98.252894083539502     
   2.8266666666666658E-005    -86.133185718474067     
   2.8466666666666663E-005    -73.499352984096191     
   2.8666666666666668E-005    -60.407201471104500     
   2.8866666666666659E-005    -46.917425191579049     
   2.9066666666666664E-005    -33.095978561185866     
   2.9266666666666669E-005    -19.014243139724091     
   2.9466666666666660E-005    -4.7489553907981437     
   2.9666666666666665E-005     9.6181432150317043     
   2.9866666666666656E-005     24.000951209167837     
   3.0066666666666661E-005     38.309970862236341     
   3.0266666666666666E-005     52.453533387687365     
   3.0466666666666657E-005     66.339310103085040     
   3.0666666666666662E-005     79.875910558922754     
   3.0866666666666667E-005     92.974650943513055     
   3.1066666666666658E-005     105.55129672658461     
   3.1266666666666663E-005     117.52772034149081     
   3.1466666666666668E-005     128.83347016966889     
   3.1666666666666659E-005     139.40714126663460     
   3.1866666666666664E-005     149.19741057573282     
   3.2066666666666656E-005     158.16395974999492     
   3.2266666666666660E-005     166.27807833666077     
   3.2466666666666665E-005     173.52283558355401     
   3.2666666666666657E-005     179.89311789385354     
   3.2866666666666661E-005     185.39541307244556     
   3.3066666666666666E-005     190.04712173431312     
   3.3266666666666658E-005     193.87591104355261     
   3.3466666666666662E-005     196.91873064335064     
   3.3666666666666667E-005     199.22081737410551     
   3.3866666666666659E-005     200.83448304917826     
   3.4066666666666664E-005     201.81810896833758     
   3.4266666666666668E-005     202.23489169176062     
   3.4466666666666660E-005     202.15190713321985     
   3.4666666666666665E-005     201.63906450767726     
   3.4866666666666656E-005     200.76822918103798     
   3.5066666666666661E-005     199.61243005081238     
   3.5266666666666666E-005     198.24503925585839     
   3.5466666666666657E-005     196.73910272087255     
   3.5666666666666662E-005     195.16651147278165     
   3.5866666666666667E-005     193.59755417215086     
   3.6066666666666658E-005     192.10003426293019     
   3.6266666666666663E-005     190.73855249727092     
   3.6466666666666668E-005     189.57371493620309     
   3.6666666666666659E-005     188.66127262026046     
   3.6866666666666664E-005     188.05108643289455     
   3.7066666666666669E-005     187.78615165945223     
   3.7266666666666660E-005     187.90136516296042     
   3.7466666666666665E-005     188.42238589336219     
   3.7666666666666656E-005     189.36444486060827     
   3.7866666666666661E-005     190.73123715295370     
   3.8066666666666666E-005     192.51395450135630     
   3.8266666666666657E-005     194.69057764849791     
   3.8466666666666662E-005     197.22536058124822     
   3.8666666666666667E-005     200.06871202646414     
   3.8866666666666658E-005     203.15736663010071     
   3.9066666666666663E-005     206.41495958757559     
   3.9266666666666668E-005     209.75291250344532     
   3.9466666666666659E-005     213.07156745829715     
   3.9666666666666664E-005     216.26171998301666     
   3.9866666666666655E-005     219.20622485948198     
   4.0066666666666660E-005     221.78194887617298     
   4.0266666666666665E-005     223.86174288013976     
   4.0466666666666656E-005     225.31664089076818     
   4.0666666666666661E-005     226.01804077764535     
   4.0866666666666666E-005     225.84003217647140     
   4.1066666666666657E-005     224.66160711616425     
   4.1266666666666662E-005     222.36895298321465     
   4.1466666666666667E-005     218.85757587473472     
   4.1666666666666658E-005     214.03438668741498     
   4.1866666666666663E-005     207.81967877480554     
   4.2066666666666668E-005     200.14890452432778     
   4.2266666666666660E-005     190.97433208088464     
   4.2466666666666664E-005     180.26648191648474     
   4.2666666666666656E-005     168.01537804401005     
   4.2866666666666661E-005     154.23152491168804     
   4.3066666666666665E-005     138.94662511662094     
   4.3266666666666657E-005     122.21393370711522     
   4.3466666666666662E-005     104.10830825521421     
   4.3666666666666666E-005     84.725896516023511     
   4.3866666666666658E-005     64.183480466997594     
   4.4066666666666663E-005     42.617406508897623     
   4.4266666666666667E-005     20.182377620410307     
   4.4466666666666659E-005    -2.9501449230638812     
   4.4666666666666664E-005    -26.593668830754062     
   4.4866666666666655E-005    -50.548528452286504     
   4.5066666666666660E-005    -74.603917097788411     
   4.5266666666666665E-005    -98.539958853542046     
   4.5466666666666656E-005    -122.12983991451853     
   4.5666666666666661E-005    -145.14213417940937     
   4.5866666666666666E-005    -167.34303679295482     
   4.6066666666666657E-005    -188.49879446820756     
   4.6266666666666662E-005    -208.37818650746371     
   4.6466666666666667E-005    -226.75508315498161     
   4.6666666666666658E-005    -243.41103683858128     
   4.6866666666666663E-005    -258.13799736875694     
   4.7066666666666668E-005    -270.74096244342002     
   4.7266666666666659E-005    -281.04080497460126     
   4.7466666666666664E-005    -288.87694689505048     
   4.7666666666666655E-005    -294.11012725704467     
   4.7866666666666660E-005    -296.62502060416409     
   4.8066666666666665E-005    -296.33276347635245     
   4.8266666666666656E-005    -293.17324548357055     
   4.8466666666666661E-005    -287.11711260534332     
   4.8666666666666666E-005    -278.16747041440175     
   4.8866666666666657E-005    -266.36108196185842     
   4.9066666666666662E-005    -251.76913443879283     
   4.9266666666666667E-005    -234.49748039399395     
   4.9466666666666658E-005    -214.68637005637729     
   4.9666666666666663E-005    -192.50970374312328     
   4.9866666666666655E-005    -168.17370620385529     
   5.0066666666666659E-005    -141.91516883333364     
   5.0266666666666664E-005    -113.99934582440927     
   5.0466666666666656E-005    -84.717303076286001     
   5.0666666666666660E-005    -54.382930722522715     
   5.0866666666666665E-005    -23.329548754543708     
   5.1066666666666657E-005     8.0937860283460594     
   5.1266666666666661E-005     39.526269746578635     
   5.1466666666666666E-005     70.599653219652239     
   5.1666666666666658E-005     100.94266451483381     
   5.1866666666666662E-005     130.18552046147585     
   5.2066666666666667E-005     157.96465654781758     
   5.2266666666666659E-005     183.92711648345869     
   5.2466666666666664E-005     207.73507100212058     
   5.2666666666666655E-005     229.07008479047130     
   5.2866666666666660E-005     247.63708765707815     
   5.3066666666666665E-005     263.16800510080657     
   5.3266666666666656E-005     275.42510505424423     
   5.3466666666666661E-005     284.20389337581980     
   5.3666666666666666E-005     289.33547922674541     
   5.3866666666666657E-005     290.68848014221669     
   5.4066666666666662E-005     288.17042960760006     
   5.4266666666666667E-005     281.72871823333520     
   5.4466666666666658E-005     271.35101727617365     
   5.4666666666666663E-005     257.06534176439175     
   5.4866666666666668E-005     238.93985033720085     
   5.5066666666666659E-005     217.08230000040476     
   5.5266666666666664E-005     191.63926871210367     
   5.5466666666666655E-005     162.79526709072837     
   5.5666666666666660E-005     130.77156121570951     
   5.5866666666666665E-005     95.824965590588207     
   5.6066666666666656E-005     58.246138600614110     
   5.6266666666666661E-005     18.357778378482617     
   5.6466666666666666E-005    -23.487400743833277     
   5.6666666666666657E-005    -66.909348667904851     
   5.6866666666666662E-005    -111.50339307857588     
   5.7066666666666667E-005    -156.84353102774656     
   5.7266666666666658E-005    -202.48595347246325     
   5.7466666666666663E-005    -247.97307264025000     
   5.7666666666666654E-005    -292.83778610659743     
   5.7866666666666659E-005    -336.60816754537910     
   5.8066666666666664E-005    -378.81220610645346     
   5.8266666666666655E-005    -418.98310877646935     
   5.8466666666666660E-005    -456.66457150690701     
   5.8666666666666665E-005    -491.41614829319951     
   5.8866666666666656E-005    -522.81880341840167     
   5.9066666666666661E-005    -550.48016194904164     
   5.9266666666666666E-005    -574.03961039413014     
   5.9466666666666657E-005    -593.17314100253861     
   5.9666666666666662E-005    -607.59768805312854     
   5.9866666666666667E-005    -617.07502741306496     
   6.0066666666666659E-005    -621.41512205115498     
   6.0266666666666663E-005    -620.47877972812807     
   6.0466666666666655E-005    -614.17974782273518     
   6.0666666666666660E-005    -602.48600306578658     
   6.0866666666666664E-005    -585.42037561119378     
   6.1066666666666656E-005    -563.06030638324887     
   6.1266666666666661E-005    -535.53704088127324     
   6.1466666666666665E-005    -503.03414031063420     
   6.1666666666666657E-005    -465.78496046271835     
   6.1866666666666662E-005    -424.07012249318109     
   6.2066666666666666E-005    -378.21415876547383     
   6.2266666666666658E-005    -328.58191516905663     
   6.2466666666666663E-005    -275.57472450656809     
   6.2666666666666668E-005    -219.62635889741318     
   6.2866666666666659E-005    -161.19896283801486     
   6.3066666666666664E-005    -100.77882130673302     
   6.3266666666666655E-005    -38.872081728945417     
   6.3466666666666660E-005     23.999625402089183     
   6.3666666666666665E-005     87.303610927396107     
   6.3866666666666656E-005     150.50064975263143     
   6.4066666666666661E-005     213.04970575280643     
   6.4266666666666666E-005     274.41264144774686     
   6.4466666666666657E-005     334.05896393724657     
   6.4666666666666662E-005     391.47067973973691     
   6.4866666666666667E-005     446.14726007812658     
   6.5066666666666658E-005     497.61019726795871     
   6.5266666666666663E-005     545.40811140493679     
   6.5466666666666654E-005     589.12112560557262     
   6.5666666666666659E-005     628.36565148803982     
   6.5866666666666664E-005     662.79853060030814     
   6.6066666666666655E-005     692.12107453915326     
   6.6266666666666660E-005     716.08282539627896     
   6.6466666666666665E-005     734.48475291032082     
   6.6666666666666656E-005     747.18189567941897     
   6.6866666666666661E-005     754.08556101022054     
   6.7066666666666666E-005     755.16472747642445     
   6.7266666666666657E-005     750.44693736721661     
   6.7466666666666662E-005     740.01855671980888     
   6.7666666666666667E-005     724.02440800096440     
   6.7866666666666658E-005     702.66658056002666     
   6.8066666666666663E-005     676.20270330813935     
   6.8266666666666655E-005     644.94360867168496     
   6.8466666666666659E-005     609.24985157828712     
   6.8666666666666664E-005     569.52805820223296     
   6.8866666666666656E-005     526.22596442323947     
   6.9066666666666660E-005     479.82711961687585     
   6.9266666666666665E-005     430.84502280692834     
   6.9466666666666657E-005     379.81642666056297     
   6.9666666666666661E-005     327.29465735555982     
   6.9866666666666666E-005     273.84253892127941     
   7.0066666666666658E-005     220.02526753563109     
   7.0266666666666662E-005     166.40341983451631     
   7.0466666666666654E-005     113.52606906919878     
   7.0666666666666659E-005     61.924213573463902     
   7.0866666666666664E-005     12.104609467267615     
   7.1066666666666655E-005    -35.456027685597910     
   7.1266666666666660E-005    -80.316221037556033     
   7.1466666666666665E-005    -122.07435436424515     
   7.1666666666666656E-005    -160.37266264558184     
   7.1866666666666661E-005    -194.90052387879160     
   7.2066666666666666E-005    -225.39721357073870     
   7.2266666666666657E-005    -251.65391572683023     
   7.2466666666666662E-005    -273.51523670311667     
   7.2666666666666667E-005    -290.88024152704679     
   7.2866666666666658E-005    -303.70299235818476     
   7.3066666666666663E-005    -311.99266950802030     
   7.3266666666666654E-005    -315.81329095497318     
   7.3466666666666659E-005    -315.28298734467194     
   7.3666666666666664E-005    -310.57266008013391     
   7.3866666666666655E-005    -301.90407751328524     
   7.4066666666666660E-005    -289.54736508191650     
   7.4266666666666665E-005    -273.81768700479603     
   7.4466666666666656E-005    -255.07134218214841     
   7.4666666666666661E-005    -233.70118424600412     
   7.4866666666666666E-005    -210.13143279420905     
   7.5066666666666657E-005    -184.81194952147669     
   7.5266666666666662E-005    -158.21214536137583     
   7.5466666666666653E-005    -130.81462450620026     