  -3.3333333333333335E-005     0.0000000000000000     
  -3.3133333333333337E-005     0.0000000000000000     
  -3.2933333333333332E-005     0.0000000000000000     
  -3.2733333333333334E-005     0.0000000000000000     
  -3.2533333333333336E-005     0.0000000000000000     
  -3.2333333333333338E-005     0.0000000000000000     
  -3.2133333333333333E-005     0.0000000000000000     
  -3.1933333333333335E-005     0.0000000000000000     
  -3.1733333333333337E-005     0.0000000000000000     
  -3.1533333333333332E-005     0.0000000000000000     
  -3.1333333333333334E-005     0.0000000000000000     
  -3.1133333333333336E-005     0.0000000000000000     
  -3.0933333333333338E-005     0.0000000000000000     
  -3.0733333333333333E-005     0.0000000000000000     
  -3.0533333333333335E-005     0.0000000000000000     
  -3.0333333333333337E-005     0.0000000000000000     
  -3.0133333333333335E-005     0.0000000000000000     
  -2.9933333333333334E-005     0.0000000000000000     
  -2.9733333333333336E-005     0.0000000000000000     
  -2.9533333333333334E-005     0.0000000000000000     
  -2.9333333333333336E-005     0.0000000000000000     
  -2.9133333333333334E-005     0.0000000000000000     
  -2.8933333333333336E-005     0.0000000000000000     
  -2.8733333333333335E-005     0.0000000000000000     
  -2.8533333333333333E-005     0.0000000000000000     
  -2.8333333333333335E-005     0.0000000000000000     
  -2.8133333333333337E-005     0.0000000000000000     
  -2.7933333333333336E-005     0.0000000000000000     
  -2.7733333333333334E-005     0.0000000000000000     
  -2.7533333333333336E-005     0.0000000000000000     
  -2.7333333333333335E-005     0.0000000000000000     
  -2.7133333333333333E-005     0.0000000000000000     
  -2.6933333333333335E-005     0.0000000000000000     
  -2.6733333333333337E-005     0.0000000000000000     
  -2.6533333333333336E-005     0.0000000000000000     
  -2.6333333333333334E-005     0.0000000000000000     
  -2.6133333333333336E-005     0.0000000000000000     
  -2.5933333333333335E-005     0.0000000000000000     
  -2.5733333333333333E-005    -5.8622759040223508E-041
  -2.5533333333333335E-005    -1.7589625681775843E-040
  -2.5333333333333337E-005    -1.3257627011515980E-040
  -2.5133333333333336E-005     1.5575044898869358E-040
  -2.4933333333333334E-005     2.9289751813994291E-039
  -2.4733333333333336E-005     1.1294383092773085E-038
  -2.4533333333333334E-005     2.7569649725619385E-038
  -2.4333333333333333E-005     4.4144114790269403E-038
  -2.4133333333333335E-005     2.5119550127209817E-038
  -2.3933333333333337E-005    -1.1748555466333894E-037
  -2.3733333333333335E-005    -5.3206727647090861E-037
  -2.3533333333333334E-005    -1.4134898775345275E-036
  -2.3333333333333336E-005    -2.7025933187396315E-036
  -2.3133333333333338E-005    -3.5639458204591867E-036
  -2.2933333333333336E-005    -1.4574869082741284E-036
  -2.2733333333333335E-005     8.7518486149119019E-036
  -2.2533333333333337E-005     3.4405934407657885E-035
  -2.2333333333333335E-005     8.0843923409256039E-035
  -2.2133333333333334E-005     1.3986071185965480E-034
  -2.1933333333333336E-005     1.6844741653887635E-034
  -2.1733333333333338E-005     6.1650460237601774E-035
  -2.1533333333333336E-005    -3.6211017975765415E-034
  -2.1333333333333335E-005    -1.3218573317477183E-033
  -2.1133333333333337E-005    -2.9161674453477699E-033
  -2.0933333333333335E-005    -4.7812442453592396E-033
  -2.0733333333333334E-005    -5.5635002592082170E-033
  -2.0533333333333336E-005    -2.3833552119756786E-033
  -2.0333333333333337E-005     9.2154226477439914E-033
  -2.0133333333333336E-005     3.3942003878681759E-032
  -1.9933333333333334E-005     7.2932159163464288E-032
  -1.9733333333333336E-005     1.1666325431109899E-031
  -1.9533333333333335E-005     1.3546404877337569E-031
  -1.9333333333333333E-005     7.1832559463403590E-032
  -1.9133333333333335E-005    -1.5630085583193659E-031
  -1.8933333333333337E-005    -6.2746276758475577E-031
  -1.8733333333333336E-005    -1.3491845699953576E-030
  -1.8533333333333334E-005    -2.1465802518819722E-030
  -1.8333333333333336E-005    -2.5293923628283064E-030
  -1.8133333333333335E-005    -1.6069475271970049E-030
  -1.7933333333333337E-005     1.8210641990699031E-030
  -1.7733333333333335E-005     8.8277416191925967E-030
  -1.7533333333333337E-005     1.9430309614513650E-029
  -1.7333333333333336E-005     3.1181365106526078E-029
  -1.7133333333333334E-005     3.7636498595134539E-029
  -1.6933333333333336E-005     2.7577964948231626E-029
  -1.6733333333333335E-005    -1.3562706379059461E-029
  -1.6533333333333337E-005    -9.8361673216497822E-029
  -1.6333333333333335E-005    -2.2693050617767219E-028
  -1.6133333333333337E-005    -3.7197487087920597E-028
  -1.5933333333333336E-005    -4.6359477771039998E-028
  -1.5733333333333334E-005    -3.8290274195276759E-028
  -1.5533333333333336E-005     2.1852570270687845E-029
  -1.5333333333333334E-005     8.8166712037440476E-028
  -1.5133333333333336E-005     2.2069090022760056E-027
  -1.4933333333333335E-005     3.7502760404028662E-027
  -1.4733333333333337E-005     4.8725136390577129E-027
  -1.4533333333333335E-005     4.4899555074759527E-027
  -1.4333333333333337E-005     1.2163940030287442E-027
  -1.4133333333333336E-005    -6.1846417798690595E-027
  -1.3933333333333334E-005    -1.7977940111079566E-026
  -1.3733333333333336E-005    -3.2348684372858494E-026
  -1.3533333333333335E-005    -4.4324447414194719E-026
  -1.3333333333333337E-005    -4.5322286650095512E-026
  -1.3133333333333335E-005    -2.4138280729158569E-026
  -1.2933333333333337E-005     2.9804137191443650E-026
  -1.2733333333333336E-005     1.2055014125878717E-025
  -1.2533333333333338E-005     2.3764389634715839E-025
  -1.2333333333333336E-005     3.4822480926249805E-025
  -1.2133333333333335E-005     3.9311952781621077E-025
  -1.1933333333333337E-005     2.9224149695491719E-025
  -1.1733333333333335E-005    -3.5434363031860445E-026
  -1.1533333333333337E-005    -6.3465535452293658E-025
  -1.1333333333333336E-005    -1.4627284980467896E-024
  -1.1133333333333337E-005    -2.3368462554756559E-024
  -1.0933333333333336E-005    -2.9028718433219999E-024
  -1.0733333333333334E-005    -2.6566652984984336E-024
  -1.0533333333333336E-005    -1.0491901369207439E-024
  -1.0333333333333335E-005     2.3071750219394998E-024
  -1.0133333333333337E-005     7.3455114951006804E-024
  -9.9333333333333354E-006     1.3227595651622592E-023
  -9.7333333333333373E-006     1.8123114248522346E-023
  -9.5333333333333358E-006     1.9249022120180274E-023
  -9.3333333333333343E-006     1.3338819595459219E-023
  -9.1333333333333362E-006    -2.3517221600713938E-024
  -8.9333333333333348E-006    -2.8547299650291358E-023
  -8.7333333333333367E-006    -6.2244451680320767E-023
  -8.5333333333333352E-006    -9.5347773261829772E-023
  -8.3333333333333371E-006    -1.1443570104581196E-022
  -8.1333333333333356E-006    -1.0249671941716084E-022
  -7.9333333333333376E-006    -4.3227854964889123E-023
  -7.7333333333333361E-006     7.2157928378433704E-023
  -7.5333333333333346E-006     2.3669810673994910E-022
  -7.3333333333333365E-006     4.2033615182629179E-022
  -7.1333333333333351E-006     5.6685766807348759E-022
  -6.9333333333333370E-006     5.9889072117013834E-022
  -6.7333333333333355E-006     4.3391119528911928E-022
  -6.5333333333333374E-006     1.1721425550470777E-023
  -6.3333333333333359E-006    -6.7021901021867393E-022
  -6.1333333333333379E-006    -1.5222681161912260E-021
  -5.9333333333333364E-006    -2.3421398606778728E-021
  -5.7333333333333349E-006    -2.8239264582511609E-021
  -5.5333333333333368E-006    -2.6095824118281818E-021
  -5.3333333333333354E-006    -1.3872415695399197E-021
  -5.1333333333333373E-006     9.7409866716989887E-022
  -4.9333333333333358E-006     4.2828154707091240E-021
  -4.7333333333333377E-006     7.9229916343896053E-021
  -4.5333333333333362E-006     1.0849714705299946E-020
  -4.3333333333333348E-006     1.1732160544969230E-020
  -4.1333333333333367E-006     9.2674583145067516E-021
  -3.9333333333333352E-006     2.6383793304921374E-021
  -3.7333333333333371E-006    -7.9769412438008486E-021
  -3.5333333333333356E-006    -2.0998288672130651E-020
  -3.3333333333333376E-006    -3.3331664797437486E-020
  -3.1333333333333361E-006    -4.0730181188477947E-020
  -2.9333333333333346E-006    -3.8718320229215118E-020
  -2.7333333333333365E-006    -2.4009637752396515E-020
  -2.5333333333333384E-006     3.8626080970513667E-021
  -2.3333333333333336E-006     4.1189352541316200E-020
  -2.1333333333333355E-006     7.9616355748514769E-020
  -1.9333333333333374E-006     1.0712903424580827E-019
  -1.7333333333333393E-006     1.1078555004764725E-019
  -1.5333333333333345E-006     8.0977391325283925E-020
  -1.3333333333333364E-006     1.6324720514731708E-020
  -1.1333333333333383E-006    -7.2344701857021462E-020
  -9.3333333333333343E-007    -1.6087036533440478E-019
  -7.3333333333333535E-007    -2.1526587223082361E-019
  -5.3333333333333726E-007    -2.0072685100908973E-019
  -3.3333333333333918E-007    -9.5327132224911478E-020
  -1.3333333333333432E-007     9.4615083686143362E-020
   6.6666666666663770E-008     3.2267525888709546E-019
   2.6666666666666185E-007     5.0041325617805136E-019
   4.6666666666666672E-007     5.1135843029415969E-019
   6.6666666666666480E-007     2.4384390078402901E-019
   8.6666666666666289E-007    -3.5995945980154044E-019
   1.0666666666666610E-006    -1.2489189119913936E-018
   1.2666666666666658E-006    -2.2193743444503791E-018
   1.4666666666666639E-006    -2.9057259173154528E-018
   1.6666666666666620E-006    -2.8270548024138609E-018
   1.8666666666666669E-006    -1.5028069384945789E-018
   2.0666666666666649E-006     1.3673612203923972E-018
   2.2666666666666630E-006     5.6895697327185458E-018
   2.4666666666666611E-006     1.0784777927793965E-017
   2.6666666666666660E-006     1.5299023190963822E-017
   2.8666666666666641E-006     1.7297778673560178E-017
   3.0666666666666622E-006     1.4606582630677678E-017
   3.2666666666666602E-006     5.4089372834372743E-018
   3.4666666666666651E-006    -1.0966517387797486E-017
   3.6666666666666632E-006    -3.3231391668789388E-017
   3.8666666666666613E-006    -5.7542727928046746E-017
   4.0666666666666661E-006    -7.7421089618191652E-017
   4.2666666666666642E-006    -8.4449442221115999E-017
   4.4666666666666623E-006    -6.9900886699951777E-017
   4.6666666666666604E-006    -2.7225015517176998E-017
   4.8666666666666652E-006     4.4968470104954836E-017
   5.0666666666666633E-006     1.4009779227445634E-016
   5.2666666666666614E-006     2.4187472736001694E-016
   5.4666666666666663E-006     3.2462244748224727E-016
   5.6666666666666644E-006     3.5642903673723681E-016
   5.8666666666666624E-006     3.0542565741806670E-016
   6.0666666666666605E-006     1.4870097366078664E-016
   6.2666666666666654E-006    -1.1758119245068043E-016
   6.4666666666666635E-006    -4.6919899458091685E-016
   6.6666666666666616E-006    -8.4895750444781980E-016
   6.8666666666666664E-006    -1.1687760975217153E-015
   7.0666666666666645E-006    -1.3208995863619892E-015
   7.2666666666666626E-006    -1.1986624298445546E-015
   7.4666666666666607E-006    -7.2481366448724156E-016
   7.6666666666666655E-006     1.1734353086364808E-016
   7.8666666666666636E-006     1.2571725040582257E-015
   8.0666666666666617E-006     2.5228303848529208E-015
   8.2666666666666598E-006     3.6484086896485229E-015
   8.4666666666666647E-006     4.3074736696401949E-015
   8.6666666666666627E-006     4.1733720558578490E-015
   8.8666666666666608E-006     2.9999184854882255E-015
   9.0666666666666657E-006     7.0881061849251803E-016
   9.2666666666666638E-006    -2.5359146182377634E-015
   9.4666666666666619E-006    -6.2889699819844050E-015
   9.6666666666666599E-006    -9.8410837402217925E-015
   9.8666666666666648E-006    -1.2305367196876759E-014
   1.0066666666666663E-005    -1.2772471036549723E-014
   1.0266666666666661E-005    -1.0517265194752588E-014
   1.0466666666666666E-005    -5.2222923906857026E-015
   1.0666666666666664E-005     2.8305535529898416E-015
   1.0866666666666662E-005     1.2654370238464710E-014
   1.1066666666666660E-005     2.2585901098024564E-014
   1.1266666666666665E-005     3.0477584699839296E-014
   1.1466666666666663E-005     3.4050926337168732E-014
   1.1666666666666661E-005     3.1370711458793123E-014
   1.1866666666666666E-005     2.1361331014340296E-014
   1.2066666666666664E-005     4.2576815053086268E-015
   1.2266666666666662E-005    -1.8127118101700865E-014
   1.2466666666666660E-005    -4.2419823603008719E-014
   1.2666666666666665E-005    -6.4051292352301301E-014
   1.2866666666666663E-005    -7.7961473082103592E-014
   1.3066666666666661E-005    -7.9561809148249822E-014
   1.3266666666666666E-005    -6.5796488508959092E-014
   1.3466666666666664E-005    -3.6090825387176565E-014
   1.3666666666666662E-005     7.0404155017151778E-015
   1.3866666666666660E-005     5.7918165921458455E-014
   1.4066666666666665E-005     1.0826748349823549E-013
   1.4266666666666663E-005     1.4841632072849019E-013
   1.4466666666666661E-005     1.6897205616314893E-013
   1.4666666666666666E-005     1.6269577393875907E-013
   1.4866666666666664E-005     1.2621225970251719E-013
   1.5066666666666662E-005     6.1181136538531556E-014
   1.5266666666666661E-005    -2.5374055695524176E-014
   1.5466666666666665E-005    -1.2173398481104596E-013
   1.5666666666666663E-005    -2.1310376030037082E-013
   1.5866666666666662E-005    -2.8393092221129184E-013
   1.6066666666666660E-005    -3.2049779578354138E-013
   1.6266666666666665E-005    -3.1328263126255448E-013
   1.6466666666666663E-005    -2.5861930315665426E-013
   1.6666666666666661E-005    -1.5933678145137856E-013
   1.6866666666666666E-005    -2.4302394176190044E-014
   1.7066666666666664E-005     1.3293670280878653E-013
   1.7266666666666662E-005     2.9599427058731867E-013
   1.7466666666666660E-005     4.4744244629872073E-013
   1.7666666666666665E-005     5.7010365683506191E-013
   1.7866666666666663E-005     6.4761115631784493E-013
   1.8066666666666661E-005     6.6437256820185107E-013
   1.8266666666666666E-005     6.0545444929801119E-013
   1.8466666666666664E-005     4.5717557913698808E-013
   1.8666666666666662E-005     2.0922451259444457E-013
   1.8866666666666660E-005    -1.4119478184857449E-013
   1.9066666666666665E-005    -5.8334007482663867E-013
   1.9266666666666663E-005    -1.0860806473779349E-012
   1.9466666666666661E-005    -1.5922026621486837E-012
   1.9666666666666666E-005    -2.0165322002650368E-012
   1.9866666666666664E-005    -2.2506432757662553E-012
   2.0066666666666662E-005    -2.1762194067471574E-012
   2.0266666666666660E-005    -1.6875268204744229E-012
   2.0466666666666665E-005    -7.2108243148600919E-013
   2.0666666666666663E-005     7.1215436615223348E-013
   2.0866666666666661E-005     2.4992389889282315E-012
   2.1066666666666659E-005     4.4110288226733883E-012
   2.1266666666666664E-005     6.1097663723878190E-012
   2.1466666666666662E-005     7.1844751556394958E-012
   2.1666666666666660E-005     7.2154583891679801E-012
   2.1866666666666665E-005     5.8625907114039263E-012
   2.2066666666666663E-005     2.9647693477624269E-012
   2.2266666666666661E-005    -1.3686898437878241E-012
   2.2466666666666659E-005    -6.6978865638128078E-012
   2.2666666666666664E-005    -1.2246316325413708E-011
   2.2866666666666662E-005    -1.6966247625834339E-011
   2.3066666666666660E-005    -1.9681563724718462E-011
   2.3266666666666665E-005    -1.9298513966959436E-011
   2.3466666666666663E-005    -1.5057181135650074E-011
   2.3666666666666661E-005    -6.7801587762575877E-012
   2.3866666666666660E-005     4.9358175569406856E-012
   2.4066666666666664E-005     1.8641198612753044E-011
   2.4266666666666662E-005     3.2113630810501027E-011
   2.4466666666666661E-005     4.2619651666049011E-011
   2.4666666666666665E-005     4.7347986627293268E-011
   2.4866666666666663E-005     4.3965344807148203E-011
   2.5066666666666662E-005     3.1208059299509730E-011
   2.5266666666666660E-005     9.3948136404485044E-012
   2.5466666666666665E-005    -1.9264405675894523E-011
   2.5666666666666663E-005    -5.0674235677190395E-011
   2.5866666666666661E-005    -7.9245674919440507E-011
   2.6066666666666666E-005    -9.8680819999394501E-011
   2.6266666666666664E-005    -1.0307829302057825E-010
   2.6466666666666662E-005    -8.8205611942668033E-011
   2.6666666666666660E-005    -5.2717237929423226E-011
   2.6866666666666665E-005     9.3949628499612839E-013
   2.7066666666666663E-005     6.6180025407377682E-011
   2.7266666666666661E-005     1.3268855081339406E-010
   2.7466666666666666E-005     1.8765208873632166E-010
   2.7666666666666664E-005     2.1775091295630424E-010
   2.7866666666666662E-005     2.1166838293994468E-010
   2.8066666666666667E-005     1.6273245563593572E-010
   2.8266666666666658E-005     7.1197428037156163E-011
   2.8466666666666663E-005    -5.4353080112797340E-011
   2.8666666666666668E-005    -1.9693112433014951E-010
   2.8866666666666659E-005    -3.3267671040065574E-010
   2.9066666666666664E-005    -4.3401954443623558E-010
   2.9266666666666669E-005    -4.7418294819458124E-010
   2.9466666666666660E-005    -4.3243096069312841E-010
   2.9666666666666665E-005    -2.9920625889658876E-010
   2.9866666666666656E-005    -8.0167202850428905E-011
   3.0066666666666661E-005     2.0184119822488348E-010
   3.0266666666666666E-005     5.0763688183198800E-010
   3.0466666666666657E-005     7.8573482325465524E-010
   3.0666666666666662E-005     9.7940375766736551E-010
   3.0866666666666667E-005     1.0359974543362590E-009
   3.1066666666666658E-005     9.1726516916642597E-010
   3.1266666666666663E-005     6.0894449452553937E-010
   3.1466666666666668E-005     1.2778218281252740E-010
   3.1666666666666659E-005    -4.7571948911052130E-010
   3.1866666666666664E-005    -1.1200477350031576E-009
   3.2066666666666656E-005    -1.7013530328324035E-009
   3.2266666666666660E-005    -2.1075095989689162E-009
   3.2466666666666665E-005    -2.2359884762544696E-009
   3.2666666666666657E-005    -2.0130548924036424E-009
   3.2866666666666661E-005    -1.4111892629436026E-009
   3.3066666666666666E-005    -4.6147674050462598E-010
   3.3266666666666658E-005     7.4191745214239641E-010
   3.3466666666666662E-005     2.0471308271114095E-009
   3.3666666666666667E-005     3.2604014638887464E-009
   3.3866666666666659E-005     4.1711550291419001E-009
   3.4066666666666664E-005     4.5835573925091122E-009
   3.4266666666666668E-005     4.3502431798304976E-009
   3.4466666666666660E-005     3.4030164669747150E-009
   3.4666666666666665E-005     1.7751492662736616E-009
   3.4866666666666656E-005    -3.8941072747091301E-010
   3.5066666666666661E-005    -2.8430515107694483E-009
   3.5266666666666666E-005    -5.2586317157702838E-009
   3.5466666666666657E-005    -7.2690141440586586E-009
   3.5666666666666662E-005    -8.5176337553106572E-009
   3.5866666666666667E-005    -8.7135313008261489E-009
   3.6066666666666658E-005    -7.6828939636153020E-009
   3.6266666666666663E-005    -5.4088643135017436E-009
   3.6466666666666668E-005    -2.0523992528209599E-009
   3.6666666666666659E-005     2.0508600207278579E-009
   3.6866666666666664E-005     6.4195441792553302E-009
   3.7066666666666669E-005     1.0479480602185459E-008
   3.7266666666666660E-005     1.3634991262619316E-008
   3.7466666666666665E-005     1.5349844875220968E-008
   3.7666666666666656E-005     1.5227075866807350E-008
   3.7866666666666661E-005     1.3076317696781498E-008
   3.8066666666666666E-005     8.9583311491694300E-009
   3.8266666666666657E-005     3.1990400710459462E-009
   3.8466666666666662E-005    -3.6307891912424413E-009
   3.8666666666666667E-005    -1.0769532410460541E-008
   3.8866666666666658E-005    -1.7347079571825155E-008
   3.9066666666666663E-005    -2.2486293153447646E-008
   3.9266666666666668E-005    -2.5411484422196502E-008
   3.9466666666666659E-005    -2.5550564766108169E-008
   3.9666666666666664E-005    -2.2618155207241686E-008
   3.9866666666666655E-005    -1.6669039793955875E-008
   4.0066666666666660E-005    -8.1149043580399361E-009
   4.0266666666666665E-005     2.2984453290779642E-009
   4.0466666666666656E-005     1.3551741623376586E-008
   4.0666666666666661E-005     2.4445086387677718E-008
   4.0866666666666666E-005     3.3714085614551100E-008
   4.1066666666666657E-005     4.0158392303071949E-008
   4.1266666666666662E-005     4.2770978675915417E-008
   4.1466666666666667E-005     4.0856614728477725E-008
   4.1666666666666658E-005     3.4129184862252124E-008
   4.1866666666666663E-005     2.2778950969251549E-008
   4.2066666666666668E-005     7.5025317601507484E-009
   4.2266666666666660E-005    -1.0509768120290249E-008
   4.2466666666666664E-005    -2.9632803384182737E-008
   4.2666666666666656E-005    -4.7912926849569860E-008
   4.2866666666666661E-005    -6.3220336266579011E-008
   4.3066666666666665E-005    -7.3442261640329602E-008
   4.3266666666666657E-005    -7.6707038450460491E-008
   4.3466666666666662E-005    -7.1623559136987550E-008
   4.3666666666666666E-005    -5.7514563761962787E-008
   4.3866666666666658E-005    -3.4616900859408932E-008
   4.4066666666666663E-005    -4.2181817211553875E-009
   4.4266666666666667E-005     3.1301197042776511E-008
   4.4466666666666659E-005     6.8547682407678887E-008
   4.4666666666666664E-005     1.0333395025062885E-007
   4.4866666666666655E-005     1.3104152270289333E-007
   4.5066666666666660E-005     1.4711133038162567E-007
   4.5266666666666665E-005     1.4762550435948460E-007
   4.5466666666666656E-005     1.2992216766293310E-007
   4.5666666666666661E-005     9.3167501985779492E-008
   4.5866666666666666E-005     3.8798718294152439E-008
   4.6066666666666657E-005    -2.9248169781644825E-008
   4.6266666666666662E-005    -1.0459936779316559E-007
   4.6466666666666667E-005    -1.7884026184380911E-007
   4.6666666666666658E-005    -2.4225736744333284E-007
   4.6866666666666663E-005    -2.8488725365224781E-007
   4.7066666666666668E-005    -2.9778452006906177E-007
   4.7266666666666659E-005    -2.7437434023098753E-007
   4.7466666666666664E-005    -2.1172005714063313E-007
   4.7666666666666655E-005    -1.1151878146738416E-007
   4.7866666666666660E-005     1.9355158984358211E-008
   4.8066666666666665E-005     1.6890652120453336E-007
   4.8266666666666656E-005     3.2076409985685463E-007
   4.8466666666666661E-005     4.5562339875787144E-007
   4.8666666666666666E-005     5.5330336704087918E-007
   4.8866666666666657E-005     5.9523744568700388E-007
   4.9066666666666662E-005     5.6713591973461696E-007
   4.9266666666666667E-005     4.6149438207797457E-007
   4.9466666666666658E-005     2.7959877081052660E-007
   4.9666666666666663E-005     3.2692866902390234E-008
   4.9866666666666655E-005    -2.5796090481884963E-007
   5.0066666666666659E-005    -5.6229110247204226E-007
   5.0266666666666664E-005    -8.4391939356292954E-007
   5.0466666666666656E-005    -1.0638155644725942E-006
   5.0666666666666660E-005    -1.1848016402865918E-006
   5.0866666666666665E-005    -1.1764562715196390E-006
   5.1066666666666657E-005    -1.0198643111586677E-006
   5.1266666666666661E-005    -7.1160444985715037E-007
   5.1466666666666666E-005    -2.6638711550103159E-007
   5.1666666666666658E-005     2.8215384453836233E-007
   5.1866666666666662E-005     8.8285111331877403E-007
   5.2066666666666667E-005     1.4706902022859172E-006
   5.2266666666666659E-005     1.9726482639743151E-006
   5.2466666666666664E-005     2.3152720690042300E-006
   5.2666666666666655E-005     2.4333265464570391E-006
   5.2866666666666660E-005     2.2786431599104343E-006
   5.3066666666666665E-005     1.8281680626911743E-006
   5.3266666666666656E-005     1.0901806593875252E-006
   5.3466666666666661E-005     1.0773642882316499E-007
   5.3666666666666666E-005    -1.0414142596326424E-006
   5.3866666666666657E-005    -2.2488755317753647E-006
   5.4066666666666662E-005    -3.3836846023966974E-006
   5.4266666666666667E-005    -4.3040325134778531E-006
   5.4466666666666658E-005    -4.8718032295080964E-006
   5.4666666666666663E-005    -4.9686813541380243E-006
   5.4866666666666668E-005    -4.5122616851516466E-006
   5.5066666666666659E-005    -3.4703813170460707E-006
   5.5266666666666664E-005    -1.8718694000285041E-006
   5.5466666666666655E-005     1.8794381583032712E-007
   5.5666666666666660E-005     2.5482646670571413E-006
   5.5866666666666665E-005     4.9911962351904763E-006
   5.6066666666666656E-005     7.2575095736674487E-006
   5.6266666666666661E-005     9.0691319875122053E-006
   5.6466666666666666E-005     1.0156847979818463E-005
   5.6666666666666657E-005     1.0290942716300942E-005
   5.6866666666666662E-005     9.3118941396406709E-006
   5.7066666666666667E-005     7.1578286561704570E-006
   5.7266666666666658E-005     3.8853419043444945E-006
   5.7466666666666663E-005    -3.1946540403112898E-007
   5.7666666666666654E-005    -5.1422755032440053E-006
   5.7866666666666659E-005    -1.0155747816238944E-005
   5.8066666666666664E-005    -1.4848927845082244E-005
   5.8266666666666655E-005    -1.8669721944098680E-005
   5.8466666666666660E-005    -2.1077742737391201E-005
   5.8666666666666665E-005    -2.1603365888774661E-005
   5.8866666666666656E-005    -1.9907615355317843E-005
   5.9066666666666661E-005    -1.5836668833209162E-005
   5.9266666666666666E-005    -9.4645366490065451E-006
   5.9466666666666657E-005    -1.1177894903470376E-006
   5.9666666666666662E-005     8.6226719812292464E-006
   5.9866666666666667E-005     1.8946126419156855E-005
   6.0066666666666659E-005     2.8863790152573330E-005
   6.0266666666666663E-005     3.7286156584202969E-005
   6.0466666666666655E-005     4.3121311513978332E-005
   6.0666666666666660E-005     4.5386906176643639E-005
   6.0866666666666664E-005     4.3326112421669709E-005
   6.1066666666666656E-005     3.6516198658637128E-005
   6.1266666666666661E-005     2.4957732508499009E-005
   6.1466666666666665E-005     9.1327951883007924E-006
   6.1666666666666657E-005    -9.9776648739743743E-006
   6.1866666666666662E-005    -3.0924339846795498E-005
   6.2066666666666666E-005    -5.1871039886966002E-005
   6.2266666666666658E-005    -7.0725505525693759E-005
   6.2466666666666663E-005    -8.5312713347233075E-005
   6.2666666666666668E-005    -9.3578968864776958E-005
   6.2866666666666659E-005    -9.3810458052357164E-005
   6.3066666666666664E-005    -8.4846641244196814E-005
   6.3266666666666655E-005    -6.6266927512077510E-005
   6.3466666666666660E-005    -3.8529220184412989E-005
   6.3666666666666665E-005    -3.0409433940428680E-006
   6.3866666666666656E-005     3.7852522426236084E-005
   6.4066666666666661E-005     8.0970966196142305E-005
   6.4266666666666666E-005     1.2249517427941325E-004
   6.4466666666666657E-005     1.5824811121627411E-004
   6.4666666666666662E-005     1.8404483926287522E-004
   6.4866666666666667E-005     1.9608645668435886E-004
   6.5066666666666658E-005     1.9136623860357610E-004
   6.5266666666666663E-005     1.6805133961869559E-004
   6.5466666666666654E-005     1.2580165625287857E-004
   6.5666666666666659E-005     6.5988924470814034E-005
   6.5866666666666664E-005    -8.2158644682348651E-006
   6.6066666666666655E-005    -9.1909971516750745E-005
   6.6266666666666660E-005    -1.7869299524847851E-004
   6.6466666666666665E-005    -2.6106543306082195E-004
   6.6666666666666656E-005    -3.3097412966118331E-004
   6.6866666666666661E-005    -3.8047194012987115E-004
   6.7066666666666666E-005    -4.0244541723533371E-004
   6.7266666666666657E-005    -3.9135258084731862E-004
   6.7466666666666662E-005    -3.4390623923966470E-004
   6.7666666666666667E-005    -2.5963592404240409E-004
   6.7866666666666658E-005    -1.4126545662957243E-004
   6.8066666666666663E-005     5.1477472586404619E-006
   6.8266666666666655E-005     1.7034975577175128E-004
   6.8466666666666659E-005     3.4232158413018214E-004
   6.8666666666666664E-005     5.0700013663076396E-004
   6.8866666666666656E-005     6.4925644515373263E-004
   6.9066666666666660E-005     7.5407495784327830E-004
   6.9266666666666665E-005     8.0785427470616872E-004
   6.9466666666666657E-005     7.9973012782379497E-004
   6.9666666666666661E-005     7.2281124595224345E-004
   6.9866666666666666E-005     5.7521274901522785E-004
   7.0066666666666658E-005     3.6078000906715989E-004
   7.0266666666666662E-005     8.9408514777122698E-005
   7.0466666666666654E-005    -2.2310815628529362E-004
   7.0666666666666659E-005    -5.5573866288899311E-004
   7.0866666666666664E-005    -8.8337917352972683E-004
   7.1066666666666655E-005    -1.1784797432674292E-003
   7.1266666666666660E-005    -1.4130428407706610E-003
   7.1466666666666665E-005    -1.5608687044268328E-003
   7.1666666666666656E-005    -1.5998879449572788E-003
   7.1866666666666661E-005    -1.5143987471848523E-003
   7.2066666666666666E-005    -1.2970194697688299E-003
   7.2266666666666657E-005    -9.5016815268309418E-004
   7.2466666666666662E-005    -4.8690393543951080E-004
   7.2666666666666667E-005     6.9000291694029076E-005
   7.2866666666666658E-005     6.8383432768572092E-004
   7.3066666666666663E-005     1.3155975775201267E-003
   7.3266666666666654E-005     1.9164673328653599E-003
   7.3466666666666659E-005     2.4359735319951629E-003
   7.3666666666666664E-005     2.8246953685630736E-003
   7.3866666666666655E-005     3.0382377585085932E-003
   7.4066666666666660E-005     3.0412014984591922E-003
   7.4266666666666665E-005     2.8108353488353541E-003
   7.4466666666666656E-005     2.3400568808435171E-003
   7.4666666666666661E-005     1.6395458714260523E-003
   7.4866666666666666E-005     7.3866500216062476E-004
   7.5066666666666657E-005    -3.1497235324035879E-004
   7.5266666666666662E-005    -1.4573762936056320E-003
   7.5466666666666653E-005    -2.6114811432563817E-003