  -3.3333333333333335E-005     0.0000000000000000     
  -3.3133333333333337E-005     0.0000000000000000     
  -3.2933333333333332E-005     0.0000000000000000     
  -3.2733333333333334E-005     0.0000000000000000     
  -3.2533333333333336E-005     0.0000000000000000     
  -3.2333333333333338E-005     0.0000000000000000     
  -3.2133333333333333E-005     0.0000000000000000     
  -3.1933333333333335E-005     0.0000000000000000     
  -3.1733333333333337E-005     0.0000000000000000     
  -3.1533333333333332E-005     0.0000000000000000     
  -3.1333333333333334E-005     0.0000000000000000     
  -3.1133333333333336E-005     0.0000000000000000     
  -3.0933333333333338E-005     0.0000000000000000     
  -3.0733333333333333E-005     0.0000000000000000     
  -3.0533333333333335E-005     0.0000000000000000     
  -3.0333333333333337E-005     0.0000000000000000     
  -3.0133333333333335E-005     0.0000000000000000     
  -2.9933333333333334E-005     0.0000000000000000     
  -2.9733333333333336E-005     0.0000000000000000     
  -2.9533333333333334E-005     0.0000000000000000     
  -2.9333333333333336E-005     0.0000000000000000     
  -2.9133333333333334E-005     0.0000000000000000     
  -2.8933333333333336E-005     0.0000000000000000     
  -2.8733333333333335E-005     0.0000000000000000     
  -2.8533333333333333E-005     0.0000000000000000     
  -2.8333333333333335E-005     0.0000000000000000     
  -2.8133333333333337E-005     0.0000000000000000     
  -2.7933333333333336E-005     0.0000000000000000     
  -2.7733333333333334E-005     0.0000000000000000     
  -2.7533333333333336E-005     0.0000000000000000     
  -2.7333333333333335E-005     0.0000000000000000     
  -2.7133333333333333E-005     0.0000000000000000     
  -2.6933333333333335E-005     0.0000000000000000     
  -2.6733333333333337E-005     0.0000000000000000     
  -2.6533333333333336E-005     0.0000000000000000     
  -2.6333333333333334E-005     0.0000000000000000     
  -2.6133333333333336E-005     0.0000000000000000     
  -2.5933333333333335E-005     0.0000000000000000     
  -2.5733333333333333E-005     0.0000000000000000     
  -2.5533333333333335E-005     0.0000000000000000     
  -2.5333333333333337E-005     0.0000000000000000     
  -2.5133333333333336E-005     0.0000000000000000     
  -2.4933333333333334E-005     0.0000000000000000     
  -2.4733333333333336E-005     0.0000000000000000     
  -2.4533333333333334E-005     0.0000000000000000     
  -2.4333333333333333E-005     0.0000000000000000     
  -2.4133333333333335E-005     0.0000000000000000     
  -2.3933333333333337E-005     0.0000000000000000     
  -2.3733333333333335E-005     0.0000000000000000     
  -2.3533333333333334E-005     0.0000000000000000     
  -2.3333333333333336E-005     0.0000000000000000     
  -2.3133333333333338E-005     0.0000000000000000     
  -2.2933333333333336E-005     0.0000000000000000     
  -2.2733333333333335E-005     0.0000000000000000     
  -2.2533333333333337E-005     0.0000000000000000     
  -2.2333333333333335E-005     0.0000000000000000     
  -2.2133333333333334E-005     0.0000000000000000     
  -2.1933333333333336E-005     0.0000000000000000     
  -2.1733333333333338E-005     0.0000000000000000     
  -2.1533333333333336E-005     0.0000000000000000     
  -2.1333333333333335E-005     0.0000000000000000     
  -2.1133333333333337E-005     0.0000000000000000     
  -2.0933333333333335E-005     0.0000000000000000     
  -2.0733333333333334E-005     0.0000000000000000     
  -2.0533333333333336E-005     0.0000000000000000     
  -2.0333333333333337E-005     0.0000000000000000     
  -2.0133333333333336E-005     0.0000000000000000     
  -1.9933333333333334E-005     0.0000000000000000     
  -1.9733333333333336E-005     0.0000000000000000     
  -1.9533333333333335E-005     0.0000000000000000     
  -1.9333333333333333E-005     0.0000000000000000     
  -1.9133333333333335E-005     0.0000000000000000     
  -1.8933333333333337E-005     0.0000000000000000     
  -1.8733333333333336E-005     0.0000000000000000     
  -1.8533333333333334E-005     0.0000000000000000     
  -1.8333333333333336E-005     0.0000000000000000     
  -1.8133333333333335E-005     0.0000000000000000     
  -1.7933333333333337E-005     0.0000000000000000     
  -1.7733333333333335E-005     0.0000000000000000     
  -1.7533333333333337E-005     0.0000000000000000     
  -1.7333333333333336E-005     0.0000000000000000     
  -1.7133333333333334E-005     0.0000000000000000     
  -1.6933333333333336E-005     0.0000000000000000     
  -1.6733333333333335E-005     0.0000000000000000     
  -1.6533333333333337E-005     0.0000000000000000     
  -1.6333333333333335E-005     0.0000000000000000     
  -1.6133333333333337E-005     0.0000000000000000     
  -1.5933333333333336E-005     0.0000000000000000     
  -1.5733333333333334E-005     0.0000000000000000     
  -1.5533333333333336E-005     0.0000000000000000     
  -1.5333333333333334E-005     0.0000000000000000     
  -1.5133333333333336E-005     0.0000000000000000     
  -1.4933333333333335E-005     0.0000000000000000     
  -1.4733333333333337E-005     0.0000000000000000     
  -1.4533333333333335E-005     0.0000000000000000     
  -1.4333333333333337E-005     0.0000000000000000     
  -1.4133333333333336E-005     0.0000000000000000     
  -1.3933333333333334E-005     0.0000000000000000     
  -1.3733333333333336E-005     0.0000000000000000     
  -1.3533333333333335E-005     0.0000000000000000     
  -1.3333333333333337E-005     0.0000000000000000     
  -1.3133333333333335E-005     0.0000000000000000     
  -1.2933333333333337E-005     0.0000000000000000     
  -1.2733333333333336E-005     0.0000000000000000     
  -1.2533333333333338E-005     0.0000000000000000     
  -1.2333333333333336E-005     0.0000000000000000     
  -1.2133333333333335E-005     0.0000000000000000     
  -1.1933333333333337E-005     0.0000000000000000     
  -1.1733333333333335E-005     0.0000000000000000     
  -1.1533333333333337E-005     0.0000000000000000     
  -1.1333333333333336E-005     0.0000000000000000     
  -1.1133333333333337E-005     0.0000000000000000     
  -1.0933333333333336E-005     0.0000000000000000     
  -1.0733333333333334E-005     0.0000000000000000     
  -1.0533333333333336E-005     0.0000000000000000     
  -1.0333333333333335E-005     0.0000000000000000     
  -1.0133333333333337E-005     0.0000000000000000     
  -9.9333333333333354E-006     0.0000000000000000     
  -9.7333333333333373E-006     0.0000000000000000     
  -9.5333333333333358E-006     0.0000000000000000     
  -9.3333333333333343E-006     0.0000000000000000     
  -9.1333333333333362E-006     0.0000000000000000     
  -8.9333333333333348E-006     0.0000000000000000     
  -8.7333333333333367E-006     0.0000000000000000     
  -8.5333333333333352E-006     0.0000000000000000     
  -8.3333333333333371E-006     0.0000000000000000     
  -8.1333333333333356E-006     0.0000000000000000     
  -7.9333333333333376E-006     0.0000000000000000     
  -7.7333333333333361E-006     0.0000000000000000     
  -7.5333333333333346E-006     0.0000000000000000     
  -7.3333333333333365E-006     0.0000000000000000     
  -7.1333333333333351E-006     0.0000000000000000     
  -6.9333333333333370E-006     0.0000000000000000     
  -6.7333333333333355E-006     0.0000000000000000     
  -6.5333333333333374E-006     0.0000000000000000     
  -6.3333333333333359E-006     0.0000000000000000     
  -6.1333333333333379E-006     0.0000000000000000     
  -5.9333333333333364E-006     0.0000000000000000     
  -5.7333333333333349E-006     0.0000000000000000     
  -5.5333333333333368E-006     0.0000000000000000     
  -5.3333333333333354E-006     0.0000000000000000     
  -5.1333333333333373E-006     0.0000000000000000     
  -4.9333333333333358E-006     0.0000000000000000     
  -4.7333333333333377E-006     0.0000000000000000     
  -4.5333333333333362E-006     0.0000000000000000     
  -4.3333333333333348E-006     0.0000000000000000     
  -4.1333333333333367E-006     0.0000000000000000     
  -3.9333333333333352E-006     0.0000000000000000     
  -3.7333333333333371E-006     0.0000000000000000     
  -3.5333333333333356E-006     0.0000000000000000     
  -3.3333333333333376E-006     0.0000000000000000     
  -3.1333333333333361E-006     0.0000000000000000     
  -2.9333333333333346E-006     0.0000000000000000     
  -2.7333333333333365E-006     0.0000000000000000     
  -2.5333333333333384E-006     0.0000000000000000     
  -2.3333333333333336E-006     0.0000000000000000     
  -2.1333333333333355E-006     0.0000000000000000     
  -1.9333333333333374E-006     0.0000000000000000     
  -1.7333333333333393E-006     0.0000000000000000     
  -1.5333333333333345E-006     0.0000000000000000     
  -1.3333333333333364E-006     0.0000000000000000     
  -1.1333333333333383E-006     2.2631337504946769E-041
  -9.3333333333333343E-007     5.6497394511771979E-041
  -7.3333333333333535E-007     9.2333554149500105E-041
  -5.3333333333333726E-007     5.9318183917154529E-041
  -3.3333333333333918E-007    -7.4065916941383332E-041
  -1.3333333333333432E-007    -4.0257185444453399E-040
   6.6666666666663770E-008    -8.4144524012251151E-040
   2.6666666666666185E-007    -1.5593383472262355E-039
   4.6666666666666672E-007    -2.4132565033241350E-039
   6.6666666666666480E-007    -2.4871053463428410E-039
   8.6666666666666289E-007    -1.4644798195056458E-039
   1.0666666666666610E-006     1.5422334025321446E-039
   1.2666666666666658E-006     6.5230358362044851E-039
   1.4666666666666639E-006     1.3674675498138302E-038
   1.6666666666666620E-006     2.1682073127246310E-038
   1.8666666666666669E-006     2.7716148899588596E-038
   2.0666666666666649E-006     2.9285701606033310E-038
   2.2666666666666630E-006     2.1764744079287288E-038
   2.4666666666666611E-006     4.0662786124050375E-039
   2.6666666666666660E-006    -2.0371384991623626E-038
   2.8666666666666641E-006    -5.3442017051552419E-038
   3.0666666666666622E-006    -9.6587927142397581E-038
   3.2666666666666602E-006    -1.4307016231225901E-037
   3.4666666666666651E-006    -1.9653650363783283E-037
   3.6666666666666632E-006    -2.3726434751436108E-037
   3.8666666666666613E-006    -2.4416488894211161E-037
   4.0666666666666661E-006    -1.9078606334522687E-037
   4.2666666666666642E-006    -5.0196308192605653E-038
   4.4666666666666623E-006     2.1273280009988192E-037
   4.6666666666666604E-006     5.8351593529734040E-037
   4.8666666666666652E-006     1.0490847520452656E-036
   5.0666666666666633E-006     1.5291104131766512E-036
   5.2666666666666614E-006     1.8997601337122639E-036
   5.4666666666666663E-006     1.9880701223990034E-036
   5.6666666666666644E-006     1.5921841237806193E-036
   5.8666666666666624E-006     5.2094022336109064E-037
   6.0666666666666605E-006    -1.3540541121490529E-036
   6.2666666666666654E-006    -4.0245687421647988E-036
   6.4666666666666635E-006    -7.2710529958613747E-036
   6.6666666666666616E-006    -1.0598197388339863E-035
   6.8666666666666664E-006    -1.3205638887428964E-035
   7.0666666666666645E-006    -1.4017891342925113E-035
   7.2666666666666626E-006    -1.1796922423399390E-035
   7.4666666666666607E-006    -5.3526476159967041E-036
   7.6666666666666655E-006     6.1484519208129389E-036
   7.8666666666666636E-006     2.2798513756392498E-035
   8.0666666666666617E-006     4.3535170659258209E-035
   8.2666666666666598E-006     6.5776598698148786E-035
   8.4666666666666647E-006     8.5205322406090147E-035
   8.6666666666666627E-006     9.5816933936778874E-035
   8.8666666666666608E-006     9.0350427546689111E-035
   9.0666666666666657E-006     6.1196979828913474E-035
   9.2666666666666638E-006     1.8396973366841827E-036
   9.4666666666666619E-006    -9.1195397892159777E-035
   9.6666666666666599E-006    -2.1599881229848465E-034
   9.8666666666666648E-006    -3.6280004574308212E-034
   1.0066666666666663E-005    -5.1176278311403549E-034
   1.0266666666666661E-005    -6.3163419438470532E-034
   1.0466666666666666E-005    -6.7999714430676581E-034
   1.0666666666666664E-005    -6.0599618564485140E-034
   1.0866666666666662E-005    -3.5642602233101371E-034
   1.1066666666666660E-005     1.1409757556640392E-034
   1.1266666666666665E-005     8.2862638973786135E-034
   1.1466666666666663E-005     1.7696125692166156E-033
   1.1666666666666661E-005     2.8587622887400688E-033
   1.1866666666666666E-005     3.9385850625071381E-033
   1.2066666666666664E-005     4.7611465411147013E-033
   1.2266666666666662E-005     4.9913054043336131E-033
   1.2466666666666660E-005     4.2327251348728978E-033
   1.2666666666666665E-005     2.0844104557952171E-033
   1.2866666666666663E-005    -1.7674628388867144E-033
   1.3066666666666661E-005    -7.4237932473110772E-033
   1.3266666666666666E-005    -1.4623804029375694E-032
   1.3466666666666664E-005    -2.2596732570249920E-032
   1.3666666666666662E-005    -2.9951126326300848E-032
   1.3866666666666660E-005    -3.4651020199001001E-032
   1.4066666666666665E-005    -3.4134462878824431E-032
   1.4266666666666663E-005    -2.5625251459146490E-032
   1.4466666666666661E-005    -6.6687275626479798E-033
   1.4666666666666666E-005     2.4116358252873600E-032
   1.4866666666666664E-005     6.6135287893312437E-032
   1.5066666666666662E-005     1.1590062456833303E-031
   1.5266666666666661E-005     1.6631225280390815E-031
   1.5466666666666665E-005     2.0640551309763717E-031
   1.5666666666666663E-005     2.2186436745033306E-031
   1.5866666666666662E-005     1.9656376967610192E-031
   1.6066666666666660E-005     1.1529476022976025E-031
   1.6266666666666665E-005    -3.2372544678092678E-032
   1.6466666666666663E-005    -2.4741423280180997E-031
   1.6666666666666661E-005    -5.1652773227917603E-031
   1.6866666666666666E-005    -8.0815937068348428E-031
   1.7066666666666664E-005    -1.0706551395965564E-030
   1.7266666666666662E-005    -1.2339170132375237E-030
   1.7466666666666660E-005    -1.2158039847775817E-030
   1.7666666666666665E-005    -9.3404686942269680E-031
   1.7866666666666663E-005    -3.2361194844860875E-031
   1.8066666666666661E-005     6.4173070358039340E-031
   1.8266666666666666E-005     1.9263002760872479E-030
   1.8466666666666664E-005     3.4119916144508397E-030
   1.8666666666666662E-005     4.8857311601061015E-030
   1.8866666666666660E-005     6.0409497911050101E-030
   1.9066666666666665E-005     6.4988430540161823E-030
   1.9266666666666663E-005     5.8536465018168006E-030
   1.9466666666666661E-005     3.7430994754955119E-030
   1.9666666666666666E-005    -5.9310262100928543E-032
   1.9866666666666664E-005    -5.5395636268742681E-030
   2.0066666666666662E-005    -1.2341521471025816E-029
   2.0266666666666660E-005    -1.9690315337602631E-029
   2.0466666666666665E-005    -2.6366881236894603E-029
   2.0666666666666663E-005    -3.0760648966125126E-029
   2.0866666666666661E-005    -3.1023211148875220E-029
   2.1066666666666659E-005    -2.5335135590792863E-029
   2.1266666666666664E-005    -1.2280295538708976E-029
   2.1466666666666662E-005     8.7022057117358379E-030
   2.1666666666666660E-005     3.6847081441595481E-029
   2.1866666666666665E-005     6.9660257035553151E-029
   2.2066666666666663E-005     1.0269484939620356E-028
   2.2266666666666661E-005     1.2962569424466735E-028
   2.2466666666666659E-005     1.4273084887338493E-028
   2.2666666666666664E-005     1.3384963346336844E-028
   2.2866666666666662E-005     9.5816776852098129E-029
   2.3066666666666660E-005     2.4273914014821152E-029
   2.3266666666666665E-005    -8.0357952965967551E-029
   2.3466666666666663E-005    -2.1108069326509740E-028
   2.3666666666666661E-005    -3.5312783504841161E-028
   2.3866666666666660E-005    -4.8385395151766354E-028
   2.4066666666666664E-005    -5.7414012204828062E-028
   2.4266666666666662E-005    -5.9160343697338331E-028
   2.4466666666666661E-005    -5.0564116562792643E-028
   2.4666666666666665E-005    -2.9397764376124094E-028
   2.4866666666666663E-005     5.0039707849141884E-029
   2.5066666666666662E-005     5.1056373417747648E-028
   2.5266666666666660E-005     1.0442855496295104E-027
   2.5466666666666665E-005     1.5790086974201439E-027
   2.5666666666666663E-005     2.0172352834537981E-027
   2.5866666666666661E-005     2.2457422262311533E-027
   2.6066666666666666E-005     2.1512849144014908E-027
   2.6266666666666664E-005     1.6414353753755601E-027
   2.6466666666666662E-005     6.6826966458343912E-028
   2.6666666666666660E-005    -7.4860478465713902E-028
   2.6866666666666665E-005    -2.5041232375617438E-027
   2.7066666666666663E-005    -4.3997378287749829E-027
   2.7266666666666661E-005    -6.1496706547307734E-027
   2.7466666666666666E-005    -7.4044786881997741E-027
   2.7666666666666664E-005    -7.7927418690620090E-027
   2.7866666666666662E-005    -6.9787271153067317E-027
   2.8066666666666667E-005    -4.7305425632503239E-027
   2.8266666666666658E-005    -9.9007685243780912E-028
   2.8466666666666663E-005     4.0665587769643950E-027
   2.8666666666666668E-005     9.9906999758024477E-027
   2.8866666666666659E-005     1.6057190865937570E-026
   2.9066666666666664E-005     2.1304717733601368E-026
   2.9266666666666669E-005     2.4625935101947649E-026
   2.9466666666666660E-005     2.4906521211670715E-026
   2.9666666666666665E-005     2.1204558989546984E-026
   2.9866666666666656E-005     1.2953276889230661E-026
   3.0066666666666661E-005     1.6187966721704449E-028
   3.0266666666666666E-005    -1.6417579011567559E-026
   3.0466666666666657E-005    -3.5193488776223345E-026
   3.0666666666666662E-005    -5.3744587847370616E-026
   3.0866666666666667E-005    -6.8967731059476742E-026
   3.1066666666666658E-005    -7.7382949629766132E-026
   3.1266666666666663E-005    -7.5596536319271876E-026
   3.1466666666666668E-005    -6.0896676922862663E-026
   3.1666666666666659E-005    -3.1924832993680441E-026
   3.1866666666666664E-005     1.0667967295015429E-026
   3.2066666666666656E-005     6.3700914579667037E-026
   3.2266666666666660E-005     1.2122099974549605E-025
   3.2466666666666665E-005     1.7468041088929137E-025
   3.2666666666666657E-005     2.1364895306054156E-025
   3.2866666666666661E-005     2.2711521640083832E-025
   3.3066666666666666E-005     2.0533325127073862E-025
   3.3266666666666658E-005     1.4204406133401100E-025
   3.3466666666666662E-005     3.6760161081097611E-026
   3.3666666666666667E-005    -1.0332648080575793E-025
   3.3866666666666659E-005    -2.6233673115546817E-025
   3.4066666666666664E-005    -4.1611755565060138E-025
   3.4266666666666668E-005    -5.3447796065052064E-025
   3.4466666666666660E-005    -5.8539477760942684E-025
   3.4666666666666665E-005    -5.4095263228412849E-025
   3.4866666666666656E-005    -3.8431282825181234E-025
   3.5066666666666661E-005    -1.1652819525807778E-025
   3.5266666666666666E-005     2.3834887132378797E-025
   3.5466666666666657E-005     6.3156452100980768E-025
   3.5666666666666662E-005     9.9285287958918056E-025
   3.5866666666666667E-005     1.2393709537726018E-024
   3.6066666666666658E-005     1.2901763291144429E-024
   3.6266666666666663E-005     1.0846777318185276E-024
   3.6466666666666668E-005     6.0204036606626641E-025
   3.6666666666666659E-005    -1.2268154570668002E-025
   3.6866666666666664E-005    -9.9048864073723971E-025
   3.7066666666666669E-005    -1.8428545145237471E-024
   3.7266666666666660E-005    -2.4813970836770524E-024
   3.7466666666666665E-005    -2.7027635960100374E-024
   3.7666666666666656E-005    -2.3449568802684070E-024
   3.7866666666666661E-005    -1.3373701063071071E-024
   3.8066666666666666E-005     2.5649751647035560E-025
   3.8266666666666657E-005     2.2162498111837576E-024
   3.8466666666666662E-005     4.1731847828656220E-024
   3.8666666666666667E-005     5.6573946021288294E-024
   3.8866666666666658E-005     6.1829518732967544E-024
   3.9066666666666663E-005     5.3610854788645092E-024
   3.9266666666666668E-005     3.0211790836766648E-024
   3.9466666666666659E-005    -6.8847768836476650E-025
   3.9666666666666664E-005    -5.2512755155693269E-024
   3.9866666666666655E-005    -9.8111499923133325E-024
   4.0066666666666660E-005    -1.3294224765172548E-023
   4.0266666666666665E-005    -1.4617809994460232E-023
   4.0466666666666656E-005    -1.2956941037209177E-023
   4.0666666666666661E-005    -8.0149317200211518E-024
   4.0866666666666666E-005    -2.2805640984541667E-025
   4.1066666666666657E-005     9.1679777981636245E-024
   4.1266666666666662E-005     1.8265586671399783E-023
   4.1466666666666667E-005     2.4826075051391463E-023
   4.1666666666666658E-005     2.6799826748494304E-023
   4.1866666666666663E-005     2.2932341541521610E-023
   4.2066666666666668E-005     1.3310756030502553E-023
   4.2266666666666660E-005    -3.2199215302849117E-025
   4.2466666666666664E-005    -1.4645278550974033E-023
   4.2666666666666656E-005    -2.5328839796482129E-023
   4.2866666666666661E-005    -2.8078893566786999E-023
   4.3066666666666665E-005    -2.0008009014243679E-023
   4.3266666666666657E-005    -1.0298230431957099E-024
   4.3466666666666662E-005     2.5127886575288461E-023
   4.3666666666666666E-005     5.0726252171090180E-023
   4.3866666666666658E-005     6.4982650193650628E-023
   4.4066666666666663E-005     5.6335461877041240E-023
   4.4266666666666667E-005     1.5813818208877925E-023
   4.4466666666666659E-005    -5.9064704364236077E-023
   4.4666666666666664E-005    -1.6080053861178720E-022
   4.4866666666666655E-005    -2.6997479167463155E-022
   4.5066666666666660E-005    -3.5599561801657718E-022
   4.5266666666666665E-005    -3.8131694271388542E-022
   4.5466666666666656E-005    -3.0924244661240777E-022
   4.5666666666666661E-005    -1.1449647791051745E-022
   4.5866666666666666E-005     2.0529300347118142E-022
   4.6066666666666657E-005     6.1994281271118150E-022
   4.6266666666666662E-005     1.0621020648466129E-021
   4.6466666666666667E-005     1.4306664519367815E-021
   4.6666666666666658E-005     1.6041341777614207E-021
   4.6866666666666663E-005     1.4638987840530210E-021
   4.7066666666666668E-005     9.2493421554325483E-022
   4.7266666666666659E-005    -3.1383978526998272E-023
   4.7466666666666664E-005    -1.3298171171385793E-021
   4.7666666666666655E-005    -2.7877222965642441E-021
   4.7866666666666660E-005    -4.1232406591229753E-021
   4.8066666666666665E-005    -4.9901078829921139E-021
   4.8266666666666656E-005    -5.0389509641042991E-021
   4.8466666666666661E-005    -3.9984336316547275E-021
   4.8666666666666666E-005    -1.7627889756688016E-021
   4.8866666666666657E-005     1.5332732213591563E-021
   4.9066666666666662E-005     5.4738668151323243E-021
   4.9266666666666667E-005     9.3750884262910234E-021
   4.9466666666666658E-005     1.2364506845083247E-020
   4.9666666666666663E-005     1.3527215664270864E-020
   4.9866666666666655E-005     1.2102932223244683E-020
   5.0066666666666659E-005     7.7023003364310366E-021
   5.0266666666666664E-005     4.9713907822656236E-022
   5.0466666666666656E-005    -8.6667604587453593E-021
   5.0666666666666660E-005    -1.8281515493115942E-020
   5.0866666666666665E-005    -2.6344341947871891E-020
   5.1066666666666657E-005    -3.0682582607583123E-020
   5.1266666666666661E-005    -2.9402861506404390E-020
   5.1466666666666666E-005    -2.1393005252501874E-020
   5.1666666666666658E-005    -6.7743881116306968E-021
   5.1866666666666662E-005     1.2812416152849237E-020
   5.2066666666666667E-005     3.4197209830364341E-020
   5.2266666666666659E-005     5.3017464468701388E-020
   5.2466666666666664E-005     6.4413578597970537E-020
   5.2666666666666655E-005     6.4012317116542154E-020
   5.2866666666666660E-005     4.9044513162076511E-020
   5.3066666666666665E-005     1.9373782625852368E-020
   5.3266666666666656E-005    -2.1821912996584892E-020
   5.3466666666666661E-005    -6.7958005581218842E-020
   5.3666666666666666E-005    -1.0970671623167738E-019
   5.3866666666666657E-005    -1.3644992524253725E-019
   5.4066666666666662E-005    -1.3838255781296518E-019
   5.4266666666666667E-005    -1.0894529481007142E-019
   5.4466666666666658E-005    -4.7111943809832022E-020
   5.4666666666666663E-005     4.1024153238434774E-020
   5.4866666666666668E-005     1.4189449664808926E-019
   5.5066666666666659E-005     2.3570802461022248E-019
   5.5266666666666664E-005     2.9941362960757406E-019
   5.5466666666666655E-005     3.1111294860622830E-019
   5.5666666666666660E-005     2.5527314721619993E-019
   5.5866666666666665E-005     1.2775666819570916E-019
   5.6066666666666656E-005    -6.0505842888475321E-020
   5.6266666666666661E-005    -2.8234284840116382E-019
   5.6466666666666666E-005    -4.9652025357606359E-019
   5.6666666666666657E-005    -6.5357030297392446E-019
   5.6866666666666662E-005    -7.0482457121245808E-019
   5.7066666666666667E-005    -6.1339113356868626E-019
   5.7266666666666658E-005    -3.6509125636232047E-019
   5.7466666666666663E-005     2.3072119012007363E-020
   5.7666666666666654E-005     4.9935162630615619E-019
   5.7866666666666659E-005     9.8051078246186165E-019
   5.8066666666666664E-005     1.3627400258346895E-018
   5.8266666666666655E-005     1.5395903610409011E-018
   5.8466666666666660E-005     1.4245977937306309E-018
   5.8666666666666665E-005     9.7472813053643310E-019
   5.8866666666666656E-005     2.0972410911392015E-019
   5.9066666666666661E-005    -7.7776599324289497E-019
   5.9266666666666666E-005    -1.8255478374532419E-018
   5.9466666666666657E-005    -2.7210264037858665E-018
   5.9666666666666662E-005    -3.2355488876379639E-018
   5.9866666666666667E-005    -3.1699633364046236E-018
   6.0066666666666659E-005    -2.4041366317932690E-018
   6.0266666666666663E-005    -9.4073555677492980E-019
   6.0466666666666655E-005     1.0673183134966558E-018
   6.0666666666666660E-005     3.3151720727331215E-018
   6.0866666666666664E-005     5.3761968619511749E-018
   6.1066666666666656E-005     6.7646611629163704E-018
   6.1266666666666661E-005     7.0249366669519414E-018
   6.1466666666666665E-005     5.8344209595961138E-018
   6.1666666666666657E-005     3.1017587568390786E-018
   6.1866666666666662E-005    -9.6104474678335172E-019
   6.2066666666666666E-005    -5.8132350958791003E-018
   6.2266666666666658E-005    -1.0622075289514106E-017
   6.2466666666666663E-005    -1.4367829180961577E-017
   6.2666666666666668E-005    -1.6010451719896008E-017
   6.2866666666666659E-005    -1.4697648394461079E-017
   6.3066666666666664E-005    -9.9813943169581362E-018
   6.3266666666666655E-005    -2.0013552043896432E-018
   6.3466666666666660E-005     8.4084143096162203E-018
   6.3666666666666665E-005     1.9727164030455300E-017
   6.3866666666666656E-005     2.9892551096469222E-017
   6.4066666666666661E-005     3.6584205114443893E-017
   6.4266666666666666E-005     3.7620230135004901E-017
   6.4466666666666657E-005     3.1414158786689241E-017
   6.4666666666666662E-005     1.7417633838855951E-017
   6.4866666666666667E-005    -3.5385159910693997E-018
   6.5066666666666658E-005    -2.9090605431082937E-017
   6.5266666666666663E-005    -5.5444118928370885E-017
   6.5466666666666654E-005    -7.7765938414328760E-017
   6.5666666666666659E-005    -9.0854824032486289E-017
   6.5866666666666664E-005    -9.0025021330869314E-017
   6.6066666666666655E-005    -7.2086110692762056E-017
   6.6266666666666660E-005    -3.6261761460395490E-017
   6.6466666666666665E-005     1.5130311028973545E-017
   6.6666666666666656E-005     7.6407905460486079E-017
   6.6866666666666661E-005     1.3879562233756645E-016
   6.7066666666666666E-005     1.9130211601348282E-016
   6.7266666666666657E-005     2.2217486941017484E-016
   6.7466666666666662E-005     2.2079956129592003E-016
   6.7666666666666667E-005     1.7980882184227886E-016
   6.7866666666666658E-005     9.7082723990859936E-017
   6.8066666666666663E-005    -2.2720985700292142E-017
   6.8266666666666655E-005    -1.6746317690361409E-016
   6.8466666666666659E-005    -3.1793622034358658E-016
   6.8666666666666664E-005    -4.4955797719463374E-016
   6.8866666666666656E-005    -5.3533417491987767E-016
   6.9066666666666660E-005    -5.4986718045641196E-016
   6.9266666666666665E-005    -4.7397311900722143E-016
   6.9466666666666657E-005    -2.9928092321303652E-016
   6.9666666666666661E-005    -3.2058245464970536E-017
   6.9866666666666666E-005     3.0452480815085303E-016
   7.0066666666666658E-005     6.7040127708654545E-016
   7.0266666666666662E-005     1.0113767830236203E-015
   7.0466666666666654E-005     1.2648243846878289E-015
   7.0666666666666659E-005     1.3680337045279472E-015
   7.0866666666666664E-005     1.2684615857593538E-015
   7.1066666666666655E-005     9.3466032001135371E-016
   7.1266666666666660E-005     3.6627814683530654E-016
   7.1466666666666665E-005    -3.9868828277809949E-016
   7.1666666666666656E-005    -1.2811833216962959E-015
   7.1866666666666661E-005    -2.1644008612341067E-015
   7.2066666666666666E-005    -2.9039670857289046E-015
   7.2266666666666657E-005    -3.3449455992629614E-015
   7.2466666666666662E-005    -3.3445060208335032E-015
   7.2666666666666667E-005    -2.7979151287497592E-015
   7.2866666666666658E-005    -1.6644318651015603E-015
   7.3066666666666663E-005     1.1102067905803702E-017
   7.3266666666666654E-005     2.0854637464204646E-015
   7.3466666666666659E-005     4.3171698780977612E-015
   7.3666666666666664E-005     6.3825056858195220E-015
   7.3866666666666655E-005     7.9085703722534251E-015
   7.4066666666666660E-005     8.5219581357961213E-015
   7.4266666666666665E-005     7.9088147937879664E-015
   7.4466666666666656E-005     5.8792011153292670E-015
   7.4666666666666661E-005     2.4263330849648128E-015
   7.4866666666666666E-005    -2.2300239752377208E-015
   7.5066666666666657E-005    -7.6266498599171919E-015
   7.5266666666666662E-005    -1.3075198776585637E-014
   7.5466666666666653E-005    -1.7720785437274526E-014