  -3.3333333333333335E-005     0.0000000000000000     
  -3.3133333333333337E-005     0.0000000000000000     
  -3.2933333333333332E-005     0.0000000000000000     
  -3.2733333333333334E-005     0.0000000000000000     
  -3.2533333333333336E-005     0.0000000000000000     
  -3.2333333333333338E-005     0.0000000000000000     
  -3.2133333333333333E-005     0.0000000000000000     
  -3.1933333333333335E-005     0.0000000000000000     
  -3.1733333333333337E-005     0.0000000000000000     
  -3.1533333333333332E-005     0.0000000000000000     
  -3.1333333333333334E-005     0.0000000000000000     
  -3.1133333333333336E-005     0.0000000000000000     
  -3.0933333333333338E-005     0.0000000000000000     
  -3.0733333333333333E-005     0.0000000000000000     
  -3.0533333333333335E-005     0.0000000000000000     
  -3.0333333333333337E-005     0.0000000000000000     
  -3.0133333333333335E-005     0.0000000000000000     
  -2.9933333333333334E-005     0.0000000000000000     
  -2.9733333333333336E-005     0.0000000000000000     
  -2.9533333333333334E-005     0.0000000000000000     
  -2.9333333333333336E-005     0.0000000000000000     
  -2.9133333333333334E-005     0.0000000000000000     
  -2.8933333333333336E-005     0.0000000000000000     
  -2.8733333333333335E-005     0.0000000000000000     
  -2.8533333333333333E-005     0.0000000000000000     
  -2.8333333333333335E-005     0.0000000000000000     
  -2.8133333333333337E-005     0.0000000000000000     
  -2.7933333333333336E-005     0.0000000000000000     
  -2.7733333333333334E-005     0.0000000000000000     
  -2.7533333333333336E-005     0.0000000000000000     
  -2.7333333333333335E-005     0.0000000000000000     
  -2.7133333333333333E-005     0.0000000000000000     
  -2.6933333333333335E-005     0.0000000000000000     
  -2.6733333333333337E-005     0.0000000000000000     
  -2.6533333333333336E-005     0.0000000000000000     
  -2.6333333333333334E-005     0.0000000000000000     
  -2.6133333333333336E-005     0.0000000000000000     
  -2.5933333333333335E-005     0.0000000000000000     
  -2.5733333333333333E-005     0.0000000000000000     
  -2.5533333333333335E-005     0.0000000000000000     
  -2.5333333333333337E-005     0.0000000000000000     
  -2.5133333333333336E-005     0.0000000000000000     
  -2.4933333333333334E-005     0.0000000000000000     
  -2.4733333333333336E-005     0.0000000000000000     
  -2.4533333333333334E-005     0.0000000000000000     
  -2.4333333333333333E-005     0.0000000000000000     
  -2.4133333333333335E-005     0.0000000000000000     
  -2.3933333333333337E-005     0.0000000000000000     
  -2.3733333333333335E-005     0.0000000000000000     
  -2.3533333333333334E-005     0.0000000000000000     
  -2.3333333333333336E-005     0.0000000000000000     
  -2.3133333333333338E-005     0.0000000000000000     
  -2.2933333333333336E-005     0.0000000000000000     
  -2.2733333333333335E-005     0.0000000000000000     
  -2.2533333333333337E-005     0.0000000000000000     
  -2.2333333333333335E-005     0.0000000000000000     
  -2.2133333333333334E-005     0.0000000000000000     
  -2.1933333333333336E-005     0.0000000000000000     
  -2.1733333333333338E-005     0.0000000000000000     
  -2.1533333333333336E-005     0.0000000000000000     
  -2.1333333333333335E-005     0.0000000000000000     
  -2.1133333333333337E-005     0.0000000000000000     
  -2.0933333333333335E-005     0.0000000000000000     
  -2.0733333333333334E-005     0.0000000000000000     
  -2.0533333333333336E-005     0.0000000000000000     
  -2.0333333333333337E-005     0.0000000000000000     
  -2.0133333333333336E-005     0.0000000000000000     
  -1.9933333333333334E-005     0.0000000000000000     
  -1.9733333333333336E-005     0.0000000000000000     
  -1.9533333333333335E-005     0.0000000000000000     
  -1.9333333333333333E-005     0.0000000000000000     
  -1.9133333333333335E-005     0.0000000000000000     
  -1.8933333333333337E-005     0.0000000000000000     
  -1.8733333333333336E-005     0.0000000000000000     
  -1.8533333333333334E-005     0.0000000000000000     
  -1.8333333333333336E-005     0.0000000000000000     
  -1.8133333333333335E-005     0.0000000000000000     
  -1.7933333333333337E-005     0.0000000000000000     
  -1.7733333333333335E-005     0.0000000000000000     
  -1.7533333333333337E-005     0.0000000000000000     
  -1.7333333333333336E-005     0.0000000000000000     
  -1.7133333333333334E-005     0.0000000000000000     
  -1.6933333333333336E-005     0.0000000000000000     
  -1.6733333333333335E-005     0.0000000000000000     
  -1.6533333333333337E-005     0.0000000000000000     
  -1.6333333333333335E-005     0.0000000000000000     
  -1.6133333333333337E-005     0.0000000000000000     
  -1.5933333333333336E-005     0.0000000000000000     
  -1.5733333333333334E-005     0.0000000000000000     
  -1.5533333333333336E-005     0.0000000000000000     
  -1.5333333333333334E-005     0.0000000000000000     
  -1.5133333333333336E-005     0.0000000000000000     
  -1.4933333333333335E-005     0.0000000000000000     
  -1.4733333333333337E-005     0.0000000000000000     
  -1.4533333333333335E-005     0.0000000000000000     
  -1.4333333333333337E-005     0.0000000000000000     
  -1.4133333333333336E-005     0.0000000000000000     
  -1.3933333333333334E-005     0.0000000000000000     
  -1.3733333333333336E-005     0.0000000000000000     
  -1.3533333333333335E-005     0.0000000000000000     
  -1.3333333333333337E-005     0.0000000000000000     
  -1.3133333333333335E-005     0.0000000000000000     
  -1.2933333333333337E-005     0.0000000000000000     
  -1.2733333333333336E-005     0.0000000000000000     
  -1.2533333333333338E-005     0.0000000000000000     
  -1.2333333333333336E-005     0.0000000000000000     
  -1.2133333333333335E-005     0.0000000000000000     
  -1.1933333333333337E-005     0.0000000000000000     
  -1.1733333333333335E-005     0.0000000000000000     
  -1.1533333333333337E-005     0.0000000000000000     
  -1.1333333333333336E-005     0.0000000000000000     
  -1.1133333333333337E-005     0.0000000000000000     
  -1.0933333333333336E-005     0.0000000000000000     
  -1.0733333333333334E-005     0.0000000000000000     
  -1.0533333333333336E-005     0.0000000000000000     
  -1.0333333333333335E-005     0.0000000000000000     
  -1.0133333333333337E-005     0.0000000000000000     
  -9.9333333333333354E-006     0.0000000000000000     
  -9.7333333333333373E-006     0.0000000000000000     
  -9.5333333333333358E-006     0.0000000000000000     
  -9.3333333333333343E-006     0.0000000000000000     
  -9.1333333333333362E-006     0.0000000000000000     
  -8.9333333333333348E-006     1.5621320303627685E-040
  -8.7333333333333367E-006     5.5777954383958136E-040
  -8.5333333333333352E-006     9.7362338956697411E-040
  -8.3333333333333371E-006     9.8745601022310893E-040
  -8.1333333333333356E-006     1.7076709965895148E-040
  -7.9333333333333376E-006    -1.6959527182334961E-039
  -7.7333333333333361E-006    -4.5265267760909679E-039
  -7.5333333333333346E-006    -7.3143954077298329E-039
  -7.3333333333333365E-006    -9.1028955726781379E-039
  -7.1333333333333351E-006    -7.3727281495547118E-039
  -6.9333333333333370E-006     4.3548795968236738E-040
  -6.7333333333333355E-006     1.5393133957013169E-038
  -6.5333333333333374E-006     3.5572214413308499E-038
  -6.3333333333333359E-006     5.9185395349829318E-038
  -6.1333333333333379E-006     8.1596792905115633E-038
  -5.9333333333333364E-006     9.0432931274739133E-038
  -5.7333333333333349E-006     7.1887911577265533E-038
  -5.5333333333333368E-006     1.4899886732573127E-038
  -5.3333333333333354E-006    -1.0181393369955029E-037
  -5.1333333333333373E-006    -2.8207952879667560E-037
  -4.9333333333333358E-006    -5.0772813586700393E-037
  -4.7333333333333377E-006    -7.3097235726420119E-037
  -4.5333333333333362E-006    -8.5910796432268833E-037
  -4.3333333333333348E-006    -7.8399706303157377E-037
  -4.1333333333333367E-006    -3.6392335288682277E-037
  -3.9333333333333352E-006     5.2442122452599306E-037
  -3.7333333333333371E-006     1.9395169974369120E-036
  -3.5333333333333356E-006     3.7755661092898207E-036
  -3.3333333333333376E-006     5.7234120044199618E-036
  -3.1333333333333361E-006     7.1998906253973185E-036
  -2.9333333333333346E-006     7.3574182258103643E-036
  -2.7333333333333365E-006     5.1818974035640831E-036
  -2.5333333333333384E-006    -2.8658461597069285E-037
  -2.3333333333333336E-006    -9.6033229435278874E-036
  -2.1333333333333355E-006    -2.2468054694118886E-035
  -1.9333333333333374E-006    -3.7254439327723715E-035
  -1.7333333333333393E-006    -5.0655282973614679E-035
  -1.5333333333333345E-006    -5.7624138173155493E-035
  -1.3333333333333364E-006    -5.1810799440919840E-035
  -1.1333333333333383E-006    -2.6652874188679718E-035
  -9.3333333333333343E-007     2.2815723287251241E-035
  -7.3333333333333535E-007     9.7555340928040406E-035
  -5.3333333333333726E-007     1.9186359952726953E-034
  -3.3333333333333918E-007     2.9108886993586581E-034
  -1.3333333333333432E-007     3.7055835537464559E-034
   6.6666666666663770E-008     3.9667391342360805E-034
   2.6666666666666185E-007     3.3102786594104819E-034
   4.6666666666666672E-007     1.3800727936654484E-034
   6.6666666666666480E-007    -2.0434849620495224E-034
   8.6666666666666289E-007    -6.9145064481788703E-034
   1.0666666666666610E-006    -1.2795627451712721E-033
   1.2666666666666658E-006    -1.8768638021294042E-033
   1.4666666666666639E-006    -2.3421268857441618E-033
   1.6666666666666620E-006    -2.4947625999191394E-033
   1.8666666666666669E-006    -2.1386733737584765E-033
   2.0666666666666649E-006    -1.0998340342841776E-033
   2.2666666666666630E-006     7.2599201987654505E-034
   2.4666666666666611E-006     3.3227986220412124E-033
   2.6666666666666660E-006     6.5115307444809092E-033
   2.8666666666666641E-006     9.9260022704520808E-033
   3.0666666666666622E-006     1.3015792464365121E-032
   3.2666666666666602E-006     1.5077624942545576E-032
   3.4666666666666651E-006     1.5307280075069001E-032
   3.6666666666666632E-006     1.2855549762078085E-032
   3.8666666666666613E-006     6.8701465745178200E-033
   4.0666666666666661E-006    -3.4822942197004701E-033
   4.2666666666666642E-006    -1.8988429865109364E-032
   4.4666666666666623E-006    -4.0279113116544082E-032
   4.6666666666666604E-006    -6.7508377921538868E-032
   4.8666666666666652E-006    -9.9657686342281288E-032
   5.0666666666666633E-006    -1.3333816217582414E-031
   5.2666666666666614E-006    -1.6111747223455540E-031
   5.4666666666666663E-006    -1.6970816303958378E-031
   5.6666666666666644E-006    -1.3881510345757568E-031
   5.8666666666666624E-006    -4.1963295420368402E-032
   6.0666666666666605E-006     1.4898892618412213E-031
   6.2666666666666654E-006     4.5401069667452458E-031
   6.4666666666666635E-006     8.6899246182680265E-031
   6.6666666666666616E-006     1.3450783542157171E-030
   6.8666666666666664E-006     1.7678203036261959E-030
   7.0666666666666645E-006     1.9448092195484333E-030
   7.2666666666666626E-006     1.6141921404223410E-030
   7.4666666666666607E-006     4.8802929563335906E-031
   7.6666666666666655E-006    -1.6586866615186755E-030
   7.8666666666666636E-006    -4.8526518624422456E-030
   8.0666666666666617E-006    -8.7581687506254606E-030
   8.2666666666666598E-006    -1.2527212744859780E-029
   8.4666666666666647E-006    -1.4733348026016552E-029
   8.6666666666666627E-006    -1.3477876203208655E-029
   8.8666666666666608E-006    -6.7535916344026453E-030
   9.0666666666666657E-006     6.8878112210957939E-030
   9.2666666666666638E-006     2.7404250877447850E-029
   9.4666666666666619E-006     5.2238035525288180E-029
   9.6666666666666599E-006     7.5522719072961510E-029
   9.8666666666666648E-006     8.7983775077125767E-029
   1.0066666666666663E-005     7.8044677584404984E-029
   1.0266666666666661E-005     3.4535831623526028E-029
   1.0466666666666666E-005    -4.8939427093984867E-029
   1.0666666666666664E-005    -1.6851996300371533E-028
   1.0866666666666662E-005    -3.0479783917376433E-028
   1.1066666666666660E-005    -4.1982371302513161E-028
   1.1266666666666665E-005    -4.5900286244853092E-028
   1.1466666666666663E-005    -3.6031669216352775E-028
   1.1666666666666661E-005    -7.2128638175172467E-029
   1.1866666666666666E-005     4.2155286337242946E-028
   1.2066666666666664E-005     1.0729380108428211E-027
   1.2266666666666662E-005     1.7479314665642819E-027
   1.2466666666666660E-005     2.2208733390354032E-027
   1.2666666666666665E-005     2.1990283561668769E-027
   1.2866666666666663E-005     1.3860652928784287E-027
   1.3066666666666661E-005    -4.1475503793786709E-028
   1.3266666666666666E-005    -3.1708372740777593E-027
   1.3466666666666664E-005    -6.4943874750354835E-027
   1.3666666666666662E-005    -9.5673548922107059E-027
   1.3866666666666660E-005    -1.1173365253590337E-026
   1.4066666666666665E-005    -9.8874675122923099E-027
   1.4266666666666663E-005    -4.4480795717513892E-027
   1.4466666666666661E-005     5.7144230098262668E-027
   1.4666666666666666E-005     1.9887063590857968E-026
   1.4866666666666664E-005     3.5590447586018686E-026
   1.5066666666666662E-005     4.8427249586000132E-026
   1.5266666666666661E-005     5.2497918311511995E-026
   1.5466666666666665E-005     4.1552055413581622E-026
   1.5666666666666663E-005     1.0884004903510566E-026
   1.5866666666666662E-005    -4.0266926083837779E-026
   1.6066666666666660E-005    -1.0634878935051009E-025
   1.6266666666666665E-005    -1.7397013812832986E-025
   1.6466666666666663E-005    -2.2216177668464199E-025
   1.6666666666666661E-005    -2.2526620118632628E-025
   1.6866666666666666E-005    -1.5884971737641112E-025
   1.7066666666666664E-005    -8.2297685846426115E-027
   1.7266666666666662E-005     2.2185824163741050E-025
   1.7466666666666660E-005     4.9904306992984241E-025
   1.7666666666666665E-005     7.5994144053283093E-025
   1.7866666666666663E-005     9.1509886072969419E-025
   1.8066666666666661E-005     8.6470013607835290E-025
   1.8266666666666666E-005     5.2518681109591125E-025
   1.8466666666666664E-005    -1.3655556094228548E-025
   1.8666666666666662E-005    -1.0688121649625126E-024
   1.8866666666666660E-005    -2.1113703201791225E-024
   1.9066666666666665E-005    -2.9951466853203722E-024
   1.9266666666666663E-005    -3.3760598579787841E-024
   1.9466666666666661E-005    -2.9081773684279800E-024
   1.9666666666666666E-005    -1.3509172903458306E-024
   1.9866666666666664E-005     1.3081651745116631E-024
   2.0066666666666662E-005     4.7468074688401387E-024
   2.0266666666666660E-005     8.2586414596080977E-024
   2.0466666666666665E-005     1.0802084863987641E-023
   2.0666666666666663E-005     1.1175826831766439E-023
   2.0866666666666661E-005     8.3216401367677969E-024
   2.1066666666666659E-005     1.7154256018761492E-024
   2.1266666666666664E-005    -8.2375383500799644E-024
   2.1466666666666662E-005    -1.9925046043135599E-023
   2.1666666666666660E-005    -3.0505827465119518E-023
   2.1866666666666665E-005    -3.6259823237713735E-023
   2.2066666666666663E-005    -3.3361529358134698E-023
   2.2266666666666661E-005    -1.9016568928539072E-023
   2.2466666666666659E-005     7.2369584119919856E-024
   2.2666666666666664E-005     4.2395774969615088E-023
   2.2866666666666662E-005     7.9448953747351324E-023
   2.3066666666666660E-005     1.0784069512111892E-022
   2.3266666666666665E-005     1.1521606680639799E-022
   2.3466666666666663E-005     9.0447240555595329E-023
   2.3666666666666661E-005     2.7543037100795819E-023
   2.3866666666666660E-005    -7.0389096057076123E-023
   2.4066666666666664E-005    -1.8831521920725117E-022
   2.4266666666666662E-005    -2.9890431672604472E-022
   2.4466666666666661E-005    -3.6572618480939586E-022
   2.4666666666666665E-005    -3.5049430502978447E-022
   2.4866666666666663E-005    -2.2379784335956396E-022
   2.5066666666666662E-005     2.2505018222793476E-023
   2.5266666666666660E-005     3.6428493111718649E-022
   2.5466666666666665E-005     7.3936521220148054E-022
   2.5666666666666663E-005     1.0507488659758742E-021
   2.5866666666666661E-005     1.1814139604557958E-021
   2.6066666666666666E-005     1.0207997249304878E-021
   2.6266666666666664E-005     4.9969620870072652E-022
   2.6466666666666662E-005    -3.7348938885789520E-022
   2.6666666666666660E-005    -1.4851869287658343E-021
   2.6866666666666665E-005    -2.6091906346482323E-021
   2.7066666666666663E-005    -3.4290012672063354E-021
   2.7266666666666661E-005    -3.5946680472287036E-021
   2.7466666666666666E-005    -2.8105139539548469E-021
   2.7666666666666664E-005    -9.3986251208151484E-022
   2.7866666666666662E-005     1.8971284721914217E-021
   2.8066666666666667E-005     5.2630899474609442E-021
   2.8266666666666658E-005     8.4113782754185580E-021
   2.8466666666666663E-005     1.0384662953158564E-020
   2.8666666666666668E-005     1.0208548148076483E-020
   2.8866666666666659E-005     7.1590770588499867E-021
   2.9066666666666664E-005     1.0544976758130638E-021
   2.9266666666666669E-005    -7.5025798689917360E-021
   2.9466666666666660E-005    -1.7018129246395513E-020
   2.9666666666666665E-005    -2.5211702666282979E-020
   2.9866666666666656E-005    -2.9377079239373787E-020
   3.0066666666666661E-005    -2.6985279424908334E-020
   3.0266666666666666E-005    -1.6444174053964750E-020
   3.0466666666666657E-005     2.1438419976027998E-021
   3.0666666666666662E-005     2.6437242150730246E-020
   3.0866666666666667E-005     5.1746129409422167E-020
   3.1066666666666658E-005     7.1533403991092661E-020
   3.1266666666666663E-005     7.8589884103615028E-020
   3.1466666666666668E-005     6.6781507507057721E-020
   3.1666666666666659E-005     3.3075444876235600E-020
   3.1866666666666664E-005    -2.0619721619696408E-020
   3.2066666666666656E-005    -8.6363470934227193E-020
   3.2266666666666660E-005    -1.5038147463292464E-019
   3.2466666666666665E-005    -1.9491087206323071E-019
   3.2666666666666657E-005    -2.0171528355208545E-019
   3.2866666666666661E-005    -1.5684486159526504E-019
   3.3066666666666666E-005    -5.5745100363554713E-020
   3.3266666666666658E-005     9.2555660027089304E-020
   3.3466666666666662E-005     2.6359502052382963E-019
   3.3666666666666667E-005     4.1918243762058835E-019
   3.3866666666666659E-005     5.1330021777462398E-019
   3.4066666666666664E-005     5.0190544289214792E-019
   3.4266666666666668E-005     3.5520408565272527E-019
   3.4466666666666660E-005     6.9877859125035138E-020
   3.4666666666666665E-005    -3.2199830822072316E-019
   3.4866666666666656E-005    -7.5070157985037766E-019
   3.5066666666666661E-005    -1.1158471893928080E-018
   3.5266666666666666E-005    -1.3035031869453598E-018
   3.5466666666666657E-005    -1.2119082527823998E-018
   3.5666666666666662E-005    -7.8155104360756484E-019
   3.5866666666666667E-005    -2.2997868677876758E-020
   3.6066666666666658E-005     9.6545384075904325E-019
   3.6266666666666663E-005     1.9978214669948191E-018
   3.6466666666666668E-005     2.8232163022094339E-018
   3.6666666666666659E-005     3.1718811521385132E-018
   3.6866666666666664E-005     2.8191105149494378E-018
   3.7066666666666669E-005     1.6555259997468498E-018
   3.7266666666666660E-005    -2.5265959241070027E-019
   3.7466666666666665E-005    -2.6316846206981447E-018
   3.7666666666666656E-005    -5.0125855476236014E-018
   3.7866666666666661E-005    -6.7967935188455558E-018
   3.8066666666666666E-005    -7.3726578420426660E-018
   3.8266666666666657E-005    -6.2668663386320688E-018
   3.8466666666666662E-005    -3.3015117474862236E-018
   3.8666666666666667E-005     1.2817010621530052E-018
   3.8866666666666658E-005     6.7704040523855219E-018
   3.9066666666666663E-005     1.2035971381117636E-017
   3.9266666666666668E-005     1.5707281696956130E-017
   3.9466666666666659E-005     1.6451110472384296E-017
   3.9666666666666664E-005     1.3316059863087749E-017
   3.9866666666666655E-005     6.0697985904783936E-018
   4.0066666666666660E-005    -4.5569812213347206E-018
   4.0266666666666665E-005    -1.6804965886473613E-017
   4.0466666666666656E-005    -2.8060850548367970E-017
   4.0666666666666661E-005    -3.5289277712497641E-017
   4.0866666666666666E-005    -3.5678987170887118E-017
   4.1066666666666657E-005    -2.7395752324570141E-017
   4.1266666666666662E-005    -1.0281277221982867E-017
   4.1466666666666667E-005     1.3688861075251337E-017
   4.1666666666666658E-005     4.0361253118562846E-017
   4.1866666666666663E-005     6.3886968997334535E-017
   4.2066666666666668E-005     7.7739416758281078E-017
   4.2266666666666660E-005     7.6146701511895527E-017
   4.2466666666666664E-005     5.5686060597342850E-017
   4.2666666666666656E-005     1.6687778811703805E-017
   4.2866666666666661E-005    -3.5940891980766647E-017
   4.3066666666666665E-005    -9.2810813770518087E-017
   4.3266666666666657E-005    -1.4125844142457626E-016
   4.3466666666666662E-005    -1.6763226040007444E-016
   4.3666666666666666E-005    -1.6035364652768130E-016
   4.3866666666666658E-005    -1.1318873307595891E-016
   4.4066666666666663E-005    -2.7987574850427293E-017
   4.4266666666666667E-005     8.3893278522387530E-017
   4.4466666666666659E-005     2.0212710103326626E-016
   4.4666666666666664E-005     3.0022548659772641E-016
   4.4866666666666655E-005     3.5045386567652711E-016
   4.5066666666666660E-005     3.3014454559500701E-016
   4.5266666666666665E-005     2.2820553007859602E-016
   4.5466666666666656E-005     5.0311518232891010E-017
   4.5666666666666661E-005    -1.7874907716696059E-016
   4.5866666666666666E-005    -4.1674873155306404E-016
   4.6066666666666657E-005    -6.1018694730127136E-016
   4.6266666666666662E-005    -7.0444687828438630E-016
   4.6466666666666667E-005    -6.5638497785243970E-016
   4.6666666666666658E-005    -4.4688775000062375E-016
   4.6866666666666663E-005    -9.0419844905988489E-017
   4.7066666666666668E-005     3.6131962912494292E-016
   4.7266666666666659E-005     8.2372054321496180E-016
   4.7466666666666664E-005     1.1921953028451495E-015
   4.7666666666666655E-005     1.3624489754407079E-015
   4.7866666666666660E-005     1.2548242438187445E-015
   4.8066666666666665E-005     8.3783585153147778E-016
   4.8266666666666656E-005     1.4521834183220644E-016
   4.8466666666666661E-005    -7.1880605753440573E-016
   4.8666666666666666E-005    -1.5896198439847514E-015
   4.8866666666666657E-005    -2.2683554265780646E-015
   4.9066666666666662E-005    -2.5611639863496425E-015
   4.9266666666666667E-005    -2.3250351475889418E-015
   4.9466666666666658E-005    -1.5107861607884408E-015
   4.9666666666666663E-005    -1.9267854245746033E-016
   4.9866666666666655E-005     1.4247988625952841E-015
   5.0066666666666659E-005     3.0289391033017040E-015
   5.0266666666666664E-005     4.2500306413754674E-015
   5.0466666666666656E-005     4.7354780069364135E-015
   5.0666666666666660E-005     4.2340398252782712E-015
   5.0866666666666665E-005     2.6726453921335424E-015
   5.1066666666666657E-005     2.0668560824554250E-016
   5.1266666666666661E-005    -2.7727452659863877E-015
   5.1466666666666666E-005    -5.6843079951298519E-015
   5.1666666666666658E-005    -7.8538641367189250E-015
   5.1866666666666662E-005    -8.6510982958941391E-015
   5.2066666666666667E-005    -7.6411709138547389E-015
   5.2266666666666659E-005    -4.7194213812556096E-015
   5.2466666666666664E-005    -1.9527588086384878E-016
   5.2666666666666655E-005     5.2029365307707762E-015
   5.2866666666666660E-005     1.0417524890031537E-014
   5.3066666666666665E-005     1.4241734790057173E-014
   5.3266666666666656E-005     1.5565910108254336E-014
   5.3466666666666661E-005     1.3645217028649696E-014
   5.3666666666666666E-005     8.3320098164779872E-015
   5.3866666666666657E-005     2.1405079513971028E-016
   5.4066666666666662E-005    -9.3889931727257303E-015
   5.4266666666666667E-005    -1.8594440002540594E-014
   5.4466666666666658E-005    -2.5281145522317944E-014
   5.4666666666666663E-005    -2.7523189570449920E-014
   5.4866666666666668E-005    -2.4053709264903206E-014
   5.5066666666666659E-005    -1.4659776113254965E-014
   5.5266666666666664E-005    -4.0828338924113788E-016
   5.5466666666666655E-005     1.6375943370626821E-014
   5.5666666666666660E-005     3.2415904213028979E-014
   5.5866666666666665E-005     4.4050582542852702E-014
   5.6066666666666656E-005     4.7981741152568706E-014
   5.6266666666666661E-005     4.2062233894454502E-014
   5.6466666666666666E-005     2.5957367931266547E-014
   5.6666666666666657E-005     1.5121990401326026E-015
   5.6866666666666662E-005    -2.7303381217873093E-014
   5.7066666666666667E-005    -5.4926384620986187E-014
   5.7266666666666658E-005    -7.5166630258960326E-014
   5.7466666666666663E-005    -8.2461366258292425E-014
   5.7666666666666654E-005    -7.3186855837623900E-014
   5.7866666666666659E-005    -4.6747107542775190E-014
   5.8066666666666664E-005    -6.1666566523231462E-015
   5.8266666666666655E-005     4.2017518396920608E-014
   5.8466666666666660E-005     8.8646182223859324E-014
   5.8666666666666665E-005     1.2353125859796539E-013
   5.8866666666666656E-005     1.3750747208852268E-013
   5.9066666666666661E-005     1.2456058127650311E-013
   5.9266666666666666E-005     8.3578597465669101E-014
   5.9466666666666657E-005     1.9289569036756230E-014
   5.9666666666666662E-005    -5.7934586460248191E-014
   5.9866666666666667E-005    -1.3352549084841814E-013
   6.0066666666666659E-005    -1.9127698280024347E-013
   6.0266666666666663E-005    -2.1661197008448441E-013
   6.0466666666666655E-005    -1.9994318801719602E-013
   6.0666666666666660E-005    -1.3940836436921957E-013
   6.0866666666666664E-005    -4.2298026678995953E-014
   6.1066666666666656E-005     7.5312834519379019E-014
   6.1266666666666661E-005     1.9089093472699919E-013
   6.1466666666666665E-005     2.7948426877371811E-013
   6.1666666666666657E-005     3.1882188452820716E-013
   6.1866666666666662E-005     2.9450093505113517E-013
   6.2066666666666666E-005     2.0413883565506393E-013
   6.2266666666666658E-005     5.9444442358316279E-014
   6.2466666666666663E-005    -1.1452064379289994E-013
   6.2666666666666668E-005    -2.8310124513339226E-013
   6.2866666666666659E-005    -4.0840532897701926E-013
   6.3066666666666664E-005    -4.5720954306663872E-013
   6.3266666666666655E-005    -4.0888712574411181E-013
   6.3466666666666660E-005    -2.6162477143153620E-013
   6.3666666666666665E-005    -3.5339230054353340E-014
   6.3866666666666656E-005     2.2978358345953372E-013
   6.4066666666666661E-005     4.7939051965464906E-013
   6.4266666666666666E-005     6.5498979264647462E-013
   6.4466666666666657E-005     7.0624229507220069E-013
   6.4666666666666662E-005     6.0314027136135219E-013
   6.4866666666666667E-005     3.4541077544962818E-013
   6.5066666666666658E-005    -3.3264522109795032E-014
   6.5266666666666663E-005    -4.6781376852391601E-013
   6.5466666666666654E-005    -8.7146627989240688E-013
   6.5666666666666659E-005    -1.1514208750013115E-012
   6.5866666666666664E-005    -1.2279094216944241E-012
   6.6066666666666655E-005    -1.0530164282650932E-012
   6.6266666666666660E-005    -6.2520602761300463E-013
   6.6466666666666665E-005     4.0784603482925338E-015
   6.6666666666666656E-005     7.3414376521298196E-013
   6.6866666666666661E-005     1.4296011672828661E-012
   6.7066666666666666E-005     1.9440089237119321E-012
   6.7266666666666657E-005     2.1487306491515617E-012
   6.7466666666666662E-005     1.9615802854443814E-012
   6.7666666666666667E-005     1.3692300141706219E-012
   6.7866666666666658E-005     4.3798258838046454E-013
   6.8066666666666663E-005    -6.9065855921128143E-013
   6.8266666666666655E-005    -1.8203901361808175E-012
   6.8466666666666659E-005    -2.7339762174770786E-012
   6.8666666666666664E-005    -3.2349768893793461E-012
   6.8866666666666656E-005    -3.1894751969981207E-012
   6.9066666666666660E-005    -2.5591102553744127E-012
   6.9266666666666665E-005    -1.4176409206540966E-012
   6.9466666666666657E-005     5.4072465958272099E-014
   6.9666666666666661E-005     1.5957494105612849E-012
   6.9866666666666666E-005     2.9144317479819260E-012
   7.0066666666666658E-005     3.7422836559744054E-012
   7.0266666666666662E-005     3.8942851664677960E-012
   7.0466666666666654E-005     3.3135536547349780E-012
   7.0666666666666659E-005     2.0934246510276819E-012
   7.0866666666666664E-005     4.6929912865855798E-013
   7.1066666666666655E-005    -1.2209726262867191E-012
   7.1266666666666660E-005    -2.6027435690511262E-012
   7.1466666666666665E-005    -3.3446755777565593E-012
   7.1666666666666656E-005    -3.2373570249991253E-012
   7.1866666666666661E-005    -2.2531103088364975E-012
   7.2066666666666666E-005    -5.7186506557153219E-013
   7.2266666666666657E-005     1.4363703763583748E-012
   7.2466666666666662E-005     3.2735718685800598E-012
   7.2666666666666667E-005     4.4119667923363602E-012
   7.2866666666666658E-005     4.4114348744313088E-012
   7.3066666666666663E-005     3.0328937342652651E-012
   7.3266666666666654E-005     3.2272143220346246E-013
   7.3466666666666659E-005    -3.3534923264109361E-012
   7.3666666666666664E-005    -7.3413610779072817E-012
   7.3866666666666655E-005    -1.0793869018654451E-011
   7.4066666666666660E-005    -1.2821311808371079E-011
   7.4266666666666665E-005    -1.2670504457629325E-011
   7.4466666666666656E-005    -9.9000197712178236E-012
   7.4666666666666661E-005    -4.5153295713727844E-012
   7.4866666666666666E-005     2.9679407176471746E-012
   7.5066666666666657E-005     1.1553260619790367E-011
   7.5266666666666662E-005     1.9889088824348607E-011
   7.5466666666666653E-005     2.6476666316086081E-011