  -3.3333333333333335E-005     0.0000000000000000     
  -3.3133333333333337E-005     0.0000000000000000     
  -3.2933333333333332E-005     0.0000000000000000     
  -3.2733333333333334E-005     0.0000000000000000     
  -3.2533333333333336E-005     0.0000000000000000     
  -3.2333333333333338E-005     0.0000000000000000     
  -3.2133333333333333E-005    -2.5762538679305202E-014
  -3.1933333333333335E-005    -2.9642533750082210E-013
  -3.1733333333333337E-005    -1.7803524654558344E-012
  -3.1533333333333332E-005    -7.3512305766467707E-012
  -3.1333333333333334E-005    -2.3120175355456167E-011
  -3.1133333333333336E-005    -5.7793103562748396E-011
  -3.0933333333333338E-005    -1.1508890934190277E-010
  -3.0733333333333333E-005    -1.7165665988847950E-010
  -3.0533333333333335E-005    -1.3375970699025543E-010
  -3.0333333333333337E-005     2.2502099969787370E-010
  -3.0133333333333335E-005     1.3215927937373468E-009
  -2.9933333333333334E-005     3.7603394397102339E-009
  -2.9733333333333336E-005     8.1784878598054880E-009
  -2.9533333333333334E-005     1.4835120609840755E-008
  -2.9333333333333336E-005     2.2877228362236671E-008
  -2.9133333333333334E-005     2.9336313142249707E-008
  -2.8933333333333336E-005     2.8120295834517821E-008
  -2.8733333333333335E-005     9.5345011693299152E-009
  -2.8533333333333333E-005    -3.8898892124885726E-008
  -2.8333333333333335E-005    -1.2949553529553564E-007
  -2.8133333333333337E-005    -2.6879320351106245E-007
  -2.7933333333333336E-005    -4.4946327993369012E-007
  -2.7733333333333334E-005    -6.4113841049620883E-007
  -2.7533333333333336E-005    -7.8297627682106279E-007
  -2.7333333333333335E-005    -7.8201693071944553E-007
  -2.7133333333333333E-005    -5.2183150445316174E-007
  -2.6933333333333335E-005     1.1501151774309588E-007
  -2.6733333333333337E-005     1.2099157115571787E-006
  -2.6533333333333336E-005     2.7604314241589567E-006
  -2.6333333333333334E-005     4.6309155637457361E-006
  -2.6133333333333336E-005     6.5160700499609549E-006
  -2.5933333333333335E-005     7.9345751066205756E-006
  -2.5733333333333333E-005     8.2687315323364472E-006
  -2.5533333333333335E-005     6.8593606485186276E-006
  -2.5333333333333337E-005     3.1531949504342105E-006
  -2.5133333333333336E-005    -3.1156167197708674E-006
  -2.4933333333333334E-005    -1.1744165037316515E-005
  -2.4733333333333336E-005    -2.1925482825050927E-005
  -2.4533333333333334E-005    -3.2208030641042411E-005
  -2.4333333333333333E-005    -4.0589458390922341E-005
  -2.4133333333333335E-005    -4.4762153193489120E-005
  -2.3933333333333337E-005    -4.2495993242526107E-005
  -2.3733333333333335E-005    -3.2107807268928329E-005
  -2.3533333333333334E-005    -1.2935408000021274E-005
  -2.3333333333333336E-005     1.4284082510840693E-005
  -2.3133333333333338E-005     4.7229809583066511E-005
  -2.2933333333333336E-005     8.2079819574959993E-005
  -2.2733333333333335E-005     1.1388827817485991E-004
  -2.2533333333333337E-005     1.3722726660851539E-004
  -2.2333333333333335E-005     1.4700542377629668E-004
  -2.2133333333333334E-005     1.3933141374065949E-004
  -2.1933333333333336E-005     1.1227015726576081E-004
  -2.1733333333333338E-005     6.6350113155764815E-005
  -2.1533333333333336E-005     4.7192584928414100E-006
  -2.1333333333333335E-005    -6.7092140068876420E-005
  -2.1133333333333337E-005    -1.4177502160300787E-004
  -2.0933333333333335E-005    -2.1112251010538995E-004
  -2.0733333333333334E-005    -2.6705513665642715E-004
  -2.0533333333333336E-005    -3.0263974688867824E-004
  -2.0333333333333337E-005    -3.1295931657756659E-004
  -2.0133333333333336E-005    -2.9572010963899718E-004
  -1.9933333333333334E-005    -2.5152330471903584E-004
  -1.9733333333333336E-005    -1.8377298641197607E-004
  -1.9533333333333335E-005    -9.8232651216585638E-005
  -1.9333333333333333E-005    -2.2786691368862681E-006
  -1.9133333333333335E-005     9.6068688152893653E-005
  -1.8933333333333337E-005     1.8922617622287163E-004
  -1.8733333333333336E-005     2.7109886450396418E-004
  -1.8533333333333334E-005     3.3793661314778786E-004
  -1.8333333333333336E-005     3.8882221197990535E-004
  -1.8133333333333335E-005     4.2563513935946879E-004
  -1.7933333333333337E-005     4.5239462302956918E-004
  -1.7733333333333335E-005     4.7398582978789319E-004
  -1.7533333333333337E-005     4.9440760457707806E-004
  -1.7333333333333336E-005     5.1482526203746335E-004
  -1.7133333333333334E-005     5.3183179380282585E-004
  -1.6933333333333336E-005     5.3637954781019588E-004
  -1.6733333333333335E-005     5.1380781973039556E-004
  -1.6533333333333337E-005     4.4524934997592432E-004
  -1.6333333333333335E-005     3.1045965565738658E-004
  -1.6133333333333337E-005     9.1817935938182945E-005
  -1.5933333333333336E-005    -2.2104637784384326E-004
  -1.5733333333333334E-005    -6.2677179389412376E-004
  -1.5533333333333336E-005    -1.1087972828843838E-003
  -1.5333333333333334E-005    -1.6337175453095404E-003
  -1.5133333333333336E-005    -2.1520456613584918E-003
  -1.4933333333333335E-005    -2.6016217206292509E-003
  -1.4733333333333337E-005    -2.9134922411407373E-003
  -1.4533333333333335E-005    -3.0196926590077538E-003
  -1.4333333333333337E-005    -2.8620462166573852E-003
  -1.4133333333333336E-005    -2.4009178715168927E-003
  -1.3933333333333334E-005    -1.6228261348671938E-003
  -1.3733333333333336E-005    -5.4592881435500562E-004
  -1.3533333333333335E-005     7.7738575171034698E-004
  -1.3333333333333337E-005     2.2612957130544471E-003
  -1.3133333333333335E-005     3.7909179619248388E-003
  -1.2933333333333337E-005     5.2301361889385035E-003
  -1.2733333333333336E-005     6.4324660879475264E-003
  -1.2533333333333338E-005     7.2542400500660801E-003
  -1.2333333333333336E-005     7.5690994184666252E-003
  -1.2133333333333335E-005     7.2825270180132042E-003
  -1.1933333333333337E-005     6.3449459339230069E-003
  -1.1733333333333335E-005     4.7618256876659519E-003
  -1.1533333333333337E-005     2.5993374318594802E-003
  -1.1333333333333336E-005    -1.5602076074137960E-005
  -1.1133333333333337E-005    -2.9015295934024031E-003
  -1.0933333333333336E-005    -5.8348140020741497E-003
  -1.0733333333333334E-005    -8.5673874274891457E-003
  -1.0533333333333336E-005    -1.0848258351945228E-002
  -1.0333333333333335E-005    -1.2446715904948565E-002
  -1.0133333333333337E-005    -1.3174833947843334E-002
  -9.9333333333333354E-006    -1.2906960872080635E-002
  -9.7333333333333373E-006    -1.1594220245901014E-002
  -9.5333333333333358E-006    -9.2726524940396453E-003
  -9.3333333333333343E-006    -6.0642892550121074E-003
  -9.1333333333333362E-006    -2.1711466675013915E-003
  -8.9333333333333348E-006     2.1373242534997762E-003
  -8.7333333333333367E-006     6.5423926396696915E-003
  -8.5333333333333352E-006     1.0698604475781101E-002
  -8.3333333333333371E-006     1.4259370975300594E-002
  -8.1333333333333356E-006     1.6904064004641457E-002
  -7.9333333333333376E-006     1.8364942111431817E-002
  -7.7333333333333361E-006     1.8452013835083055E-002
  -7.5333333333333346E-006     1.7073786843803195E-002
  -7.3333333333333365E-006     1.4251817714861170E-002
  -7.1333333333333351E-006     1.0127118518431637E-002
  -6.9333333333333370E-006     4.9569715203767141E-003
  -6.7333333333333355E-006    -8.9855116611849291E-004
  -6.5333333333333374E-006    -7.0000463083494200E-003
  -6.3333333333333359E-006    -1.2860824282473654E-002
  -6.1333333333333379E-006    -1.7985097602692127E-002
  -5.9333333333333364E-006    -2.1909118725862431E-002
  -5.7333333333333349E-006    -2.4241697236283034E-002
  -5.5333333333333368E-006    -2.4700505909299793E-002
  -5.3333333333333354E-006    -2.3141032492242898E-002
  -5.1333333333333373E-006    -1.9575631345503813E-002
  -4.9333333333333358E-006    -1.4181016102552024E-002
  -4.7333333333333377E-006    -7.2932710389892880E-003
  -4.5333333333333362E-006     6.0974392975430517E-004
  -4.3333333333333348E-006     8.9379744774261312E-003
  -4.1333333333333367E-006     1.7029465848532221E-002
  -3.9333333333333352E-006     2.4199282505272271E-002
  -3.7333333333333371E-006     2.9794158115285890E-002
  -3.5333333333333356E-006     3.3249104972655368E-002
  -3.3333333333333376E-006     3.4141507104328436E-002
  -3.1333333333333361E-006     3.2237603038124826E-002
  -2.9333333333333346E-006     2.7526425565818486E-002
  -2.7333333333333365E-006     2.0236694178118117E-002
  -2.5333333333333384E-006     1.0833499020701031E-002
  -2.3333333333333336E-006    -6.5935083055921120E-006
  -2.1333333333333355E-006    -1.1441243117039354E-002
  -1.9333333333333374E-006    -2.2525854456452696E-002
  -1.7333333333333393E-006    -3.2289936510982463E-002
  -1.5333333333333345E-006    -3.9819984793304897E-002
  -1.3333333333333364E-006    -4.4341713538533056E-002
  -1.1333333333333383E-006    -4.5294518367660366E-002
  -9.3333333333333343E-007    -4.2391620468745471E-002
  -7.3333333333333535E-007    -3.5660352253175973E-002
  -5.3333333333333726E-007    -2.5458538556954680E-002
  -3.3333333333333918E-007    -1.2464444123096536E-002
  -1.3333333333333432E-007     2.3604784183309979E-003
   6.6666666666663770E-008     1.7834887947285598E-002
   2.6666666666666185E-007     3.2643780806456579E-002
   4.6666666666666672E-007     4.5442420947144478E-002
   6.6666666666666480E-007     5.4970676755418613E-002
   8.6666666666666289E-007     6.0168740990957023E-002
   1.0666666666666610E-006     6.0284051478853504E-002
   1.2666666666666658E-006     5.4958955156341409E-002
   1.4666666666666639E-006     4.4289479099084532E-002
   1.6666666666666620E-006     2.8847624208063093E-002
   1.8666666666666669E-006     9.6626163734087941E-003
   2.0666666666666649E-006    -1.1839632057496876E-002
   2.2666666666666630E-006    -3.3935585105966323E-002
   2.4666666666666611E-006    -5.4734633796206758E-002
   2.6666666666666660E-006    -7.2330938152860499E-002
   2.8666666666666641E-006    -8.4964308689284576E-002
   3.0666666666666622E-006    -9.1176963446904291E-002
   3.2666666666666602E-006    -8.9953059355059845E-002
   3.4666666666666651E-006    -8.0829169779539814E-002
   3.6666666666666632E-006    -6.3965736419090549E-002
   3.8666666666666613E-006    -4.0172259503566690E-002
   4.0666666666666661E-006    -1.0882015375851130E-002
   4.2666666666666642E-006     2.1924265687343871E-002
   4.4666666666666623E-006     5.5842486836236008E-002
   4.6666666666666604E-006     8.8209597438451692E-002
   4.8666666666666652E-006    0.11629715242990304     
   5.0666666666666633E-006    0.13751921491884778     
   5.2666666666666614E-006    0.14963765128318807     
   5.4666666666666663E-006    0.15094683786855800     
   5.6666666666666644E-006    0.14042061190017965     
   5.8666666666666624E-006    0.11780719503492516     
   6.0666666666666605E-006     8.3662018074282488E-002
   6.2666666666666654E-006     3.9314217919002775E-002
   6.4666666666666635E-006    -1.3231583267521822E-002
   6.6666666666666616E-006    -7.1450045835070100E-002
   6.8666666666666664E-006   -0.13249358479089707     
   7.0666666666666645E-006   -0.19341747119108421     
   7.2666666666666626E-006   -0.25141240588469665     
   7.4666666666666607E-006   -0.30402492214754029     
   7.6666666666666655E-006   -0.34934702019559627     
   7.8666666666666636E-006   -0.38615881196898871     
   8.0666666666666617E-006   -0.41401245192941161     
   8.2666666666666598E-006   -0.43324924710042789     
   8.4666666666666647E-006   -0.44494884031840987     
   8.6666666666666627E-006   -0.45081384013821407     
   8.8666666666666608E-006   -0.45300045496794938     
   9.0666666666666657E-006   -0.45390982470933711     
   9.2666666666666638E-006   -0.45596024113283867     
   9.4666666666666619E-006   -0.46136121926038204     
   9.6666666666666599E-006   -0.47191145364616888     
   9.8666666666666648E-006   -0.48883994287766819     
   1.0066666666666663E-005   -0.51270431800661476     
   1.0266666666666661E-005   -0.54335455135915411     
   1.0466666666666666E-005   -0.57996246291766229     
   1.0666666666666664E-005   -0.62111062098664027     
   1.0866666666666662E-005   -0.66492790294318360     
   1.1066666666666660E-005   -0.70925478927711616     
   1.1266666666666665E-005   -0.75182056377540341     
   1.1466666666666663E-005   -0.79041417674118419     
   1.1666666666666661E-005   -0.82303322994758354     
   1.1866666666666666E-005   -0.84799945175043123     
   1.2066666666666664E-005   -0.86403316615509729     
   1.2266666666666662E-005   -0.87028433022540952     
   1.2466666666666660E-005   -0.86632148224537631     
   1.2666666666666665E-005   -0.85208367002160568     
   1.2866666666666663E-005   -0.82780347683216227     
   1.3066666666666661E-005   -0.79391167358286163     
   1.3266666666666666E-005   -0.75093374468124519     
   1.3466666666666664E-005   -0.69938945688438392     
   1.3666666666666662E-005   -0.63970514487875085     
   1.3866666666666660E-005   -0.57214390952665672     
   1.4066666666666665E-005   -0.49675882432392182     
   1.4266666666666663E-005   -0.41336586870704173     
   1.4466666666666661E-005   -0.32153541541743147     
   1.4666666666666666E-005   -0.22059172422459794     
   1.4866666666666664E-005   -0.10961728730904291     
   1.5066666666666662E-005     1.2546852818559273E-002
   1.5266666666666661E-005    0.14730484269156807     
   1.5466666666666665E-005    0.29631294577351014     
   1.5666666666666663E-005    0.46148371936728327     
   1.5866666666666662E-005    0.64497563865632157     
   1.6066666666666660E-005    0.84915804950083795     
   1.6266666666666665E-005     1.0765425137354534     
   1.6466666666666663E-005     1.3296716968488280     
   1.6666666666666661E-005     1.6109698583772114     
   1.6866666666666666E-005     1.9225584954411721     
   1.7066666666666664E-005     2.2660513346096556     
   1.7266666666666662E-005     2.6423510064563844     
   1.7466666666666660E-005     3.0514653854748790     
   1.7666666666666665E-005     3.4923696037874365     
   1.7866666666666663E-005     3.9629324725646806     
   1.8066666666666661E-005     4.4599253876887088     
   1.8266666666666666E-005     4.9791204156332611     
   1.8466666666666664E-005     5.5154803649981723     
   1.8666666666666662E-005     6.0634319850373384     
   1.8866666666666660E-005     6.6172063936581562     
   1.9066666666666665E-005     7.1712184177110032     
   1.9266666666666663E-005     7.7204472738243073     
   1.9466666666666661E-005     8.2607839094027717     
   1.9666666666666666E-005     8.7892961416934412     
   1.9866666666666664E-005     9.3043750593827355     
   2.0066666666666662E-005     9.8057271920418838     
   2.0266666666666660E-005     10.294202313933273     
   2.0466666666666665E-005     10.771450089965631     
   2.0666666666666663E-005     11.239426366951744     
   2.0866666666666661E-005     11.699794146223667     
   2.1066666666666659E-005     12.153274956154300     
   2.1266666666666664E-005     12.599018627077371     
   2.1466666666666662E-005     13.034057675467892     
   2.1666666666666660E-005     13.452916409478044     
   2.1866666666666665E-005     13.847430437431163     
   2.2066666666666663E-005     14.206794523915246     
   2.2266666666666661E-005     14.517864756520908     
   2.2466666666666659E-005     14.765689428701307     
   2.2666666666666664E-005     14.934233009887590     
   2.2866666666666662E-005     15.007242756821052     
   2.3066666666666660E-005     14.969181312316858     
   2.3266666666666665E-005     14.806150304762232     
   2.3466666666666663E-005     14.506727205703784     
   2.3666666666666661E-005     14.062635837705470     
   2.3866666666666660E-005     13.469186711166138     
   2.4066666666666664E-005     12.725450815373259     
   2.4266666666666662E-005     11.834129021004529     
   2.4466666666666661E-005     10.801139574711783     
   2.4666666666666665E-005     9.6349397094970310     
   2.4866666666666663E-005     8.3456602370069071     
   2.5066666666666662E-005     6.9441204917811410     
   2.5266666666666660E-005     5.4408287961024335     
   2.5466666666666665E-005     3.8450637872253184     
   2.5666666666666663E-005     2.1641284527510098     
   2.5866666666666661E-005    0.40284605737231760     
   2.6066666666666666E-005    -1.4366594227293843     
   2.6266666666666664E-005    -3.3548713545013547     
   2.6466666666666662E-005    -5.3545032299977775     
   2.6666666666666660E-005    -7.4398800392793625     
   2.6866666666666665E-005    -9.6161223562787406     
   2.7066666666666663E-005    -11.888234131228392     
   2.7266666666666661E-005    -14.260131959164358     
   2.7466666666666666E-005    -16.733741234808317     
   2.7666666666666664E-005    -19.308189502363152     
   2.7866666666666662E-005    -21.979179130670616     
   2.8066666666666667E-005    -24.738577193350519     
   2.8266666666666658E-005    -27.574238117782446     
   2.8466666666666663E-005    -30.470097807615126     
   2.8666666666666668E-005    -33.406500913338867     
   2.8866666666666659E-005    -36.360740064369686     
   2.9066666666666664E-005    -39.307766682993190     
   2.9266666666666669E-005    -42.220982793388018     
   2.9466666666666660E-005    -45.073070544378275     
   2.9666666666666665E-005    -47.836789531072959     
   2.9866666666666656E-005    -50.485659412996931     
   3.0066666666666661E-005    -52.994513512094819     
   3.0266666666666666E-005    -55.339873351010404     
   3.0466666666666657E-005    -57.500181881448569     
   3.0666666666666662E-005    -59.455874308798940     
   3.0866666666666667E-005    -61.189343674389200     
   3.1066666666666658E-005    -62.684839410569808     
   3.1266666666666663E-005    -63.928314160689972     
   3.1466666666666668E-005    -64.907273495685928     
   3.1666666666666659E-005    -65.610653465031334     
   3.1866666666666664E-005    -66.028704031551669     
   3.2066666666666656E-005    -66.152942403257313     
   3.2266666666666660E-005    -65.976135471305113     
   3.2466666666666665E-005    -65.492341304016449     
   3.2666666666666657E-005    -64.697009895686733     
   3.2866666666666661E-005    -63.587141168921967     
   3.3066666666666666E-005    -62.161435992036296     
   3.3266666666666658E-005    -60.420527856437090     
   3.3466666666666662E-005    -58.367170145726703     
   3.3666666666666667E-005    -56.006410573707889     
   3.3866666666666659E-005    -53.345678139856922     
   3.4066666666666664E-005    -50.394817594830243     
   3.4266666666666668E-005    -47.166006284806500     
   3.4466666666666660E-005    -43.673590804349146     
   3.4666666666666665E-005    -39.933861587776448     
   3.4866666666666656E-005    -35.964771778731020     
   3.5066666666666661E-005    -31.785669015416147     
   3.5266666666666666E-005    -27.417045185396894     
   3.5466666666666657E-005    -22.880343746501048     
   3.5666666666666662E-005    -18.197828913515032     
   3.5866666666666667E-005    -13.392524454091962     
   3.6066666666666658E-005    -8.4882002054733370     
   3.6266666666666663E-005    -3.5094170497168697     
   3.6466666666666668E-005     1.5184013994698944     
   3.6666666666666659E-005     6.5688760189243132     
   3.6866666666666664E-005     11.614558441707411     
   3.7066666666666669E-005     16.626815706376963     
   3.7266666666666660E-005     21.575693577836351     
   3.7466666666666665E-005     26.429846727927863     
   3.7666666666666656E-005     31.156469346410134     
   3.7866666666666661E-005     35.721344364872166     
   3.8066666666666666E-005     40.088979732284386     
   3.8266666666666657E-005     44.222904583968528     
   3.8466666666666662E-005     48.086105821311044     
   3.8666666666666667E-005     51.641600214663185     
   3.8866666666666658E-005     54.853131541115054     
   3.9066666666666663E-005     57.685921506788816     
   3.9266666666666668E-005     60.107434734752310     
   3.9466666666666659E-005     62.088092157233397     
   3.9666666666666664E-005     63.601938286618591     
   3.9866666666666655E-005     64.627137992708484     
   4.0066666666666660E-005     65.146420720792662     
   4.0266666666666665E-005     65.147358801155590     
   4.0466666666666656E-005     64.622540842846263     
   4.0666666666666661E-005     63.569667031771232     
   4.0866666666666666E-005     61.991523172716590     
   4.1066666666666657E-005     59.895903377909740     
   4.1266666666666662E-005     57.295403189763256     
   4.1466666666666667E-005     54.207160725252358     
   4.1666666666666658E-005     50.652537542219264     
   4.1866666666666663E-005     46.656724545683197     
   4.2066666666666668E-005     42.248380985631691     
   4.2266666666666660E-005     37.459275036841063     
   4.2466666666666664E-005     32.323997415295800     
   4.2666666666666656E-005     26.879763605735796     
   4.2866666666666661E-005     21.166300527447639     
   4.3066666666666665E-005     15.225797358619541     
   4.3266666666666657E-005     9.1029126241335767     
   4.3466666666666662E-005     2.8447725203845682     
   4.3666666666666666E-005    -3.4990627818569529     
   4.3866666666666658E-005    -9.8766942093176588     
   4.4066666666666663E-005    -16.234036540231529     
   4.4266666666666667E-005    -22.515048368834499     
   4.4466666666666659E-005    -28.661997817453457     
   4.4666666666666664E-005    -34.615771574458122     
   4.4866666666666655E-005    -40.316225289803413     
   4.5066666666666660E-005    -45.702541624698512     
   4.5266666666666665E-005    -50.713683853987121     
   4.5466666666666656E-005    -55.288952474777346     
   4.5666666666666661E-005    -59.368618427152462     
   4.5866666666666666E-005    -62.894756947916363     
   4.6066666666666657E-005    -65.812165258379579     
   4.6266666666666662E-005    -68.069432341114634     
   4.6466666666666667E-005    -69.620022477086209     
   4.6666666666666658E-005    -70.423352428119387     
   4.6866666666666663E-005    -70.445835260407932     
   4.7066666666666668E-005    -69.661731795029567     
   4.7266666666666659E-005    -68.053865727362222     
   4.7466666666666664E-005    -65.614152941999549     
   4.7666666666666655E-005    -62.343920856489945     
   4.7866666666666660E-005    -58.254047943601179     
   4.8066666666666665E-005    -53.364921633722943     
   4.8266666666666656E-005    -47.706213230679026     
   4.8466666666666661E-005    -41.316486161383224     
   4.8666666666666666E-005    -34.242649233605732     
   4.8866666666666657E-005    -26.539244791196992     
   4.9066666666666662E-005    -18.267659531617667     
   4.9266666666666667E-005    -9.4952595488296438     
   4.9466666666666658E-005   -0.29459451078365273     
   4.9666666666666663E-005     9.2573015924898918     
   4.9866666666666655E-005     19.079427662676405     
   5.0066666666666659E-005     29.087093546886038     
   5.0266666666666664E-005     39.191939583134669     
   5.0466666666666656E-005     49.301775230022081     
   5.0666666666666660E-005     59.320289338365988     
   5.0866666666666665E-005     69.146699723721895     
   5.1066666666666657E-005     78.675520951924270     
   5.1266666666666661E-005     87.796477765162535     
   5.1466666666666666E-005     96.394677843373330     
   5.1666666666666658E-005     104.35101404927660     
   5.1866666666666662E-005     111.54295063927317     
   5.2066666666666667E-005     117.84550705960930     
   5.2266666666666659E-005     123.13251700842810     
   5.2466666666666664E-005     127.27811598243932     
   5.2666666666666655E-005     130.15844915828822     
   5.2866666666666660E-005     131.65350243960475     
   5.3066666666666665E-005     131.64907462955017     
   5.3266666666666656E-005     130.03886469468256     
   5.3466666666666661E-005     126.72651782698721     
   5.3666666666666666E-005     121.62768587394888     
   5.3866666666666657E-005     114.67181470612783     
   5.4066666666666662E-005     105.80378791530471     
   5.4266666666666667E-005     94.985252192883635     
   5.4466666666666658E-005     82.195646164851141     
   5.4666666666666663E-005     67.432924500236339     
   5.4866666666666668E-005     50.714038203149073     
   5.5066666666666659E-005     32.075263261325141     
   5.5266666666666664E-005     11.572512100303051     
   5.5466666666666655E-005    -10.718551893185392     
   5.5666666666666660E-005    -34.702236831461931     
   5.5866666666666665E-005    -60.262741027027886     
   5.6066666666666656E-005    -87.264078145742843     
   5.6266666666666661E-005    -115.55013196344603     
   5.6466666666666666E-005    -144.94493962435655     
   5.6666666666666657E-005    -175.25329842453328     
   5.6866666666666662E-005    -206.26130980571304     
   5.7066666666666667E-005    -237.73753602834421     
   5.7266666666666658E-005    -269.43400772486592     
   5.7466666666666663E-005    -301.08763142491995     
   5.7666666666666654E-005    -332.42139951225255     
   5.7866666666666659E-005    -363.14602509107510     
   5.8066666666666664E-005    -392.96142630417023     
   5.8266666666666655E-005    -421.55853650602484     
   5.8466666666666660E-005    -448.62101599075487     
   5.8666666666666665E-005    -473.82751495342904     
   5.8866666666666656E-005    -496.85370398500800     
   5.9066666666666661E-005    -517.37457567783554     
   5.9266666666666666E-005    -535.06706773835538     
   5.9466666666666657E-005    -549.61245525585127     
   5.9666666666666662E-005    -560.69889834872822     
   5.9866666666666667E-005    -568.02394669387729     
   6.0066666666666659E-005    -571.29753147473139     
   6.0266666666666663E-005    -570.24462282925333     
   6.0466666666666655E-005    -564.60817619661952     
   6.0666666666666660E-005    -554.15256866898289     
   6.0866666666666664E-005    -538.66689797890399     
   6.1066666666666656E-005    -517.96852508202915     
   6.1266666666666661E-005    -491.90655945005403     
   6.1466666666666665E-005    -460.36538439360260     
   6.1666666666666657E-005    -423.26791562581172     
   6.1866666666666662E-005    -380.57842871089463     
   6.2066666666666666E-005    -332.30512790775344     
   6.2266666666666658E-005    -278.50242481483616     
   6.2466666666666663E-005    -219.27264561765574     
   6.2666666666666668E-005    -154.76747554567913     
   6.2866666666666659E-005    -85.189228710253190     
   6.3066666666666664E-005    -10.791280620527296     
   6.3266666666666655E-005     68.121349161449231     
   6.3466666666666660E-005     151.19209781586702     
   6.3666666666666665E-005     238.01371862268576     
   6.3866666666666656E-005     328.12925440993178     
   6.4066666666666661E-005     421.03414774345350     
   6.4266666666666666E-005     516.17854149009656     
   6.4466666666666657E-005     612.97035505617077     
   6.4666666666666662E-005     710.77889088236134     
   6.4866666666666667E-005     808.93893505771030     
   6.5066666666666658E-005     906.75530422863096     
   6.5266666666666663E-005     1003.5074967448476     
   6.5466666666666654E-005     1098.4547838345329     
   6.5666666666666659E-005     1190.8421887324496     
   6.5866666666666664E-005     1279.9058941814174     
   6.6066666666666655E-005     1364.8796012748476     
   6.6266666666666660E-005     1445.0009827742583     
   6.6466666666666665E-005     1519.5185134026269     
   6.6666666666666656E-005     1587.6979491831451     
   6.6866666666666661E-005     1648.8290891889351     
   6.7066666666666666E-005     1702.2324635166490     
   6.7266666666666657E-005     1747.2659854094029     
   6.7466666666666662E-005     1783.3313304325227     
   6.7666666666666667E-005     1809.8800391175789     
   6.7866666666666658E-005     1826.4202749173662     
   6.8066666666666663E-005     1832.5226255424989     
   6.8266666666666655E-005     1827.8262302160053     
   6.8466666666666659E-005     1812.0449298210199     
   6.8666666666666664E-005     1784.9727494557658     
   6.8866666666666656E-005     1746.4890103439593     
   6.9066666666666660E-005     1696.5626467675024     
   6.9266666666666665E-005     1635.2559933103241     
   6.9466666666666657E-005     1562.7272273071685     
   6.9666666666666661E-005     1479.2318936184327     
   6.9866666666666666E-005     1385.1234801871044     
   7.0066666666666658E-005     1280.8526398502540     
   7.0266666666666662E-005     1166.9654116953504     
   7.0466666666666654E-005     1044.1004484815983     
   7.0666666666666659E-005     912.98510435279593     
   7.0866666666666664E-005     774.43067862842906     
   7.1066666666666655E-005     629.32643635575209     
   7.1266666666666660E-005     478.63292082845555     
   7.1466666666666665E-005     323.37445087767895     
   7.1666666666666656E-005     164.63057366558496     
   7.1866666666666661E-005     3.5274770519177210     
   7.2066666666666666E-005    -158.77149887358092     
   7.2266666666666657E-005    -321.07514746439489     
   7.2466666666666662E-005    -482.17442475263510     
   7.2666666666666667E-005    -640.85235830221211     
   7.2866666666666658E-005    -795.89361205609123     
   7.3066666666666663E-005    -946.09525939924424     
   7.3266666666666654E-005    -1090.2767159298583     
   7.3466666666666659E-005    -1227.2902734007148     
   7.3666666666666664E-005    -1356.0318876327774     
   7.3866666666666655E-005    -1475.4516671374781     
   7.4066666666666660E-005    -1584.5648941247050     
   7.4266666666666665E-005    -1682.4620049934579     
   7.4466666666666656E-005    -1768.3188266967095     
   7.4666666666666661E-005    -1841.4062004350051     
   7.4866666666666666E-005    -1901.0987360216345     
   7.5066666666666657E-005    -1946.8829199672639     
   7.5266666666666662E-005    -1978.3643129163131     
   7.5466666666666653E-005    -1995.2736408304202     