  -3.3333333333333335E-005     0.0000000000000000     
  -3.3133333333333337E-005     0.0000000000000000     
  -3.2933333333333332E-005     0.0000000000000000     
  -3.2733333333333334E-005     0.0000000000000000     
  -3.2533333333333336E-005     0.0000000000000000     
  -3.2333333333333338E-005     0.0000000000000000     
  -3.2133333333333333E-005     0.0000000000000000     
  -3.1933333333333335E-005     0.0000000000000000     
  -3.1733333333333337E-005     0.0000000000000000     
  -3.1533333333333332E-005     0.0000000000000000     
  -3.1333333333333334E-005     0.0000000000000000     
  -3.1133333333333336E-005     0.0000000000000000     
  -3.0933333333333338E-005     0.0000000000000000     
  -3.0733333333333333E-005     0.0000000000000000     
  -3.0533333333333335E-005     0.0000000000000000     
  -3.0333333333333337E-005     0.0000000000000000     
  -3.0133333333333335E-005     0.0000000000000000     
  -2.9933333333333334E-005     0.0000000000000000     
  -2.9733333333333336E-005     0.0000000000000000     
  -2.9533333333333334E-005     0.0000000000000000     
  -2.9333333333333336E-005     0.0000000000000000     
  -2.9133333333333334E-005     0.0000000000000000     
  -2.8933333333333336E-005     0.0000000000000000     
  -2.8733333333333335E-005     0.0000000000000000     
  -2.8533333333333333E-005     0.0000000000000000     
  -2.8333333333333335E-005     0.0000000000000000     
  -2.8133333333333337E-005     0.0000000000000000     
  -2.7933333333333336E-005     0.0000000000000000     
  -2.7733333333333334E-005     0.0000000000000000     
  -2.7533333333333336E-005     0.0000000000000000     
  -2.7333333333333335E-005     0.0000000000000000     
  -2.7133333333333333E-005     0.0000000000000000     
  -2.6933333333333335E-005     0.0000000000000000     
  -2.6733333333333337E-005     0.0000000000000000     
  -2.6533333333333336E-005     0.0000000000000000     
  -2.6333333333333334E-005     0.0000000000000000     
  -2.6133333333333336E-005     0.0000000000000000     
  -2.5933333333333335E-005     0.0000000000000000     
  -2.5733333333333333E-005     0.0000000000000000     
  -2.5533333333333335E-005     0.0000000000000000     
  -2.5333333333333337E-005     0.0000000000000000     
  -2.5133333333333336E-005     0.0000000000000000     
  -2.4933333333333334E-005     0.0000000000000000     
  -2.4733333333333336E-005     0.0000000000000000     
  -2.4533333333333334E-005     0.0000000000000000     
  -2.4333333333333333E-005     0.0000000000000000     
  -2.4133333333333335E-005     0.0000000000000000     
  -2.3933333333333337E-005     0.0000000000000000     
  -2.3733333333333335E-005     0.0000000000000000     
  -2.3533333333333334E-005     0.0000000000000000     
  -2.3333333333333336E-005     0.0000000000000000     
  -2.3133333333333338E-005     0.0000000000000000     
  -2.2933333333333336E-005     0.0000000000000000     
  -2.2733333333333335E-005     0.0000000000000000     
  -2.2533333333333337E-005     0.0000000000000000     
  -2.2333333333333335E-005     0.0000000000000000     
  -2.2133333333333334E-005     0.0000000000000000     
  -2.1933333333333336E-005     0.0000000000000000     
  -2.1733333333333338E-005     0.0000000000000000     
  -2.1533333333333336E-005     0.0000000000000000     
  -2.1333333333333335E-005     0.0000000000000000     
  -2.1133333333333337E-005     0.0000000000000000     
  -2.0933333333333335E-005     0.0000000000000000     
  -2.0733333333333334E-005     0.0000000000000000     
  -2.0533333333333336E-005     0.0000000000000000     
  -2.0333333333333337E-005     0.0000000000000000     
  -2.0133333333333336E-005     0.0000000000000000     
  -1.9933333333333334E-005     0.0000000000000000     
  -1.9733333333333336E-005     0.0000000000000000     
  -1.9533333333333335E-005     0.0000000000000000     
  -1.9333333333333333E-005     0.0000000000000000     
  -1.9133333333333335E-005     0.0000000000000000     
  -1.8933333333333337E-005     0.0000000000000000     
  -1.8733333333333336E-005     0.0000000000000000     
  -1.8533333333333334E-005     0.0000000000000000     
  -1.8333333333333336E-005     0.0000000000000000     
  -1.8133333333333335E-005     0.0000000000000000     
  -1.7933333333333337E-005     0.0000000000000000     
  -1.7733333333333335E-005     0.0000000000000000     
  -1.7533333333333337E-005     0.0000000000000000     
  -1.7333333333333336E-005     0.0000000000000000     
  -1.7133333333333334E-005     0.0000000000000000     
  -1.6933333333333336E-005     0.0000000000000000     
  -1.6733333333333335E-005     0.0000000000000000     
  -1.6533333333333337E-005     0.0000000000000000     
  -1.6333333333333335E-005     0.0000000000000000     
  -1.6133333333333337E-005     0.0000000000000000     
  -1.5933333333333336E-005     0.0000000000000000     
  -1.5733333333333334E-005     0.0000000000000000     
  -1.5533333333333336E-005     0.0000000000000000     
  -1.5333333333333334E-005     0.0000000000000000     
  -1.5133333333333336E-005     0.0000000000000000     
  -1.4933333333333335E-005     0.0000000000000000     
  -1.4733333333333337E-005     0.0000000000000000     
  -1.4533333333333335E-005     0.0000000000000000     
  -1.4333333333333337E-005     0.0000000000000000     
  -1.4133333333333336E-005     0.0000000000000000     
  -1.3933333333333334E-005     0.0000000000000000     
  -1.3733333333333336E-005     0.0000000000000000     
  -1.3533333333333335E-005     0.0000000000000000     
  -1.3333333333333337E-005     0.0000000000000000     
  -1.3133333333333335E-005     0.0000000000000000     
  -1.2933333333333337E-005     0.0000000000000000     
  -1.2733333333333336E-005     0.0000000000000000     
  -1.2533333333333338E-005     0.0000000000000000     
  -1.2333333333333336E-005     0.0000000000000000     
  -1.2133333333333335E-005     0.0000000000000000     
  -1.1933333333333337E-005     0.0000000000000000     
  -1.1733333333333335E-005     0.0000000000000000     
  -1.1533333333333337E-005     0.0000000000000000     
  -1.1333333333333336E-005     0.0000000000000000     
  -1.1133333333333337E-005     0.0000000000000000     
  -1.0933333333333336E-005     0.0000000000000000     
  -1.0733333333333334E-005     0.0000000000000000     
  -1.0533333333333336E-005     0.0000000000000000     
  -1.0333333333333335E-005     0.0000000000000000     
  -1.0133333333333337E-005     0.0000000000000000     
  -9.9333333333333354E-006     0.0000000000000000     
  -9.7333333333333373E-006     0.0000000000000000     
  -9.5333333333333358E-006     0.0000000000000000     
  -9.3333333333333343E-006     0.0000000000000000     
  -9.1333333333333362E-006     0.0000000000000000     
  -8.9333333333333348E-006     0.0000000000000000     
  -8.7333333333333367E-006     0.0000000000000000     
  -8.5333333333333352E-006     0.0000000000000000     
  -8.3333333333333371E-006     0.0000000000000000     
  -8.1333333333333356E-006     0.0000000000000000     
  -7.9333333333333376E-006     0.0000000000000000     
  -7.7333333333333361E-006     0.0000000000000000     
  -7.5333333333333346E-006     0.0000000000000000     
  -7.3333333333333365E-006     0.0000000000000000     
  -7.1333333333333351E-006     0.0000000000000000     
  -6.9333333333333370E-006     0.0000000000000000     
  -6.7333333333333355E-006     0.0000000000000000     
  -6.5333333333333374E-006     2.3476921833548759E-041
  -6.3333333333333359E-006     6.1141415295223521E-041
  -6.1333333333333379E-006     1.0328366947247743E-040
  -5.9333333333333364E-006     1.2713374818756817E-040
  -5.7333333333333349E-006     1.5958359467912014E-040
  -5.5333333333333368E-006     1.2948983379841105E-040
  -5.3333333333333354E-006    -7.1202416618334022E-040
  -5.1333333333333373E-006    -1.9625578894312156E-039
  -4.9333333333333358E-006    -3.4809677830026355E-039
  -4.7333333333333377E-006    -4.3400963402481504E-039
  -4.5333333333333362E-006    -4.1025820435298206E-039
  -4.3333333333333348E-006    -2.5827855955122680E-040
  -4.1333333333333367E-006     8.6440969736017847E-039
  -3.9333333333333352E-006     2.2553536786056902E-038
  -3.7333333333333371E-006     3.8169988124408235E-038
  -3.5333333333333356E-006     5.2673756294598065E-038
  -3.3333333333333376E-006     6.0033749786810471E-038
  -3.1333333333333361E-006     4.2681414145305620E-038
  -2.9333333333333346E-006    -7.0367109194900224E-039
  -2.7333333333333365E-006    -1.0083660379792978E-037
  -2.5333333333333384E-006    -2.4479202956753893E-037
  -2.3333333333333336E-006    -4.2301474277326718E-037
  -2.1333333333333355E-006    -5.9979417109219079E-037
  -1.9333333333333374E-006    -7.0868726260720227E-037
  -1.7333333333333393E-006    -6.4686239721381946E-037
  -1.5333333333333345E-006    -2.8162637807238832E-037
  -1.3333333333333364E-006     5.2635834076617993E-037
  -1.1333333333333383E-006     1.8808894863843229E-036
  -9.3333333333333343E-007     3.7669084928169781E-036
  -7.3333333333333535E-007     5.9734206196509880E-036
  -5.3333333333333726E-007     7.9810819377524458E-036
  -3.3333333333333918E-007     8.8856591528294390E-036
  -1.3333333333333432E-007     7.3906116383713110E-036
   6.6666666666663770E-008     1.9338779904765274E-036
   2.6666666666666185E-007    -8.9801616282281136E-036
   4.6666666666666672E-007    -2.6190251411207835E-035
   6.6666666666666480E-007    -4.9020658312262251E-035
   8.6666666666666289E-007    -7.4239805678614351E-035
   1.0666666666666610E-006    -9.5052965631015613E-035
   1.2666666666666658E-006    -1.0051241209436898E-034
   1.4666666666666639E-006    -7.5897897622987378E-035
   1.6666666666666620E-006    -4.7262131311398466E-036
   1.8666666666666669E-006     1.2699102781557096E-034
   2.0666666666666649E-006     3.2391301356129655E-034
   2.2666666666666630E-006     5.7226594095029144E-034
   2.4666666666666611E-006     8.2980591505183757E-034
   2.6666666666666660E-006     1.0175521455884788E-033
   2.8666666666666641E-006     1.0174852874731600E-033
   3.0666666666666622E-006     6.8160084411902649E-034
   3.2666666666666602E-006    -1.4202786087494297E-034
   3.4666666666666651E-006    -1.5619769325427398E-033
   3.6666666666666632E-006    -3.5747412190061814E-033
   3.8666666666666613E-006    -5.9812485698195536E-033
   4.0666666666666661E-006    -8.3051293644481497E-033
   4.2666666666666642E-006    -9.7407150230776478E-033
   4.4666666666666623E-006    -9.1692547019959177E-033
   4.6666666666666604E-006    -5.2872581264453492E-033
   4.8666666666666652E-006     3.1140386669206752E-033
   5.0666666666666633E-006     1.6700039896096267E-032
   5.2666666666666614E-006     3.4998034038166722E-032
   5.4666666666666663E-006     5.5741375228656952E-032
   5.6666666666666644E-006     7.4314860981421412E-032
   5.8666666666666624E-006     8.3541940811856604E-032
   6.0666666666666605E-006     7.4110383002505877E-032
   6.2666666666666654E-006     3.5934436862952543E-032
   6.4666666666666635E-006    -3.9336894209653653E-032
   6.6666666666666616E-006    -1.5466550773078084E-031
   6.8666666666666664E-006    -3.0316693853004151E-031
   7.0666666666666645E-006    -4.6365269293885591E-031
   7.2666666666666626E-006    -5.9748410201898899E-031
   7.4666666666666607E-006    -6.4849059746986205E-031
   7.6666666666666655E-006    -5.4790666996380182E-031
   7.8666666666666636E-006    -2.2604004473302188E-031
   8.0666666666666617E-006     3.6849908447734890E-031
   8.2666666666666598E-006     1.2428237597246921E-030
   8.4666666666666647E-006     2.3302687386062459E-030
   8.6666666666666627E-006     3.4634867017992882E-030
   8.8666666666666608E-006     4.3591762924057476E-030
   9.0666666666666657E-006     4.6255548448023658E-030
   9.2666666666666638E-006     3.8039340974189329E-030
   9.4666666666666619E-006     1.4530111941683983E-030
   9.6666666666666599E-006    -2.7221234935732704E-030
   9.8666666666666648E-006    -8.7051265401359023E-030
   1.0066666666666663E-005    -1.5991121302415344E-029
   1.0266666666666661E-005    -2.3436834526219719E-029
   1.0466666666666666E-005    -2.9192880767413250E-029
   1.0666666666666664E-005    -3.0781708624467880E-029
   1.0866666666666662E-005    -2.5381694008369338E-029
   1.1066666666666660E-005    -1.0357692079588719E-029
   1.1266666666666665E-005     1.5962899955519127E-029
   1.1466666666666663E-005     5.3332320605141068E-029
   1.1666666666666661E-005     9.8586457826551315E-029
   1.1866666666666666E-005     1.4483962369627473E-028
   1.2066666666666664E-005     1.8117192819209083E-028
   1.2266666666666662E-005     1.9314669437643910E-028
   1.2466666666666660E-005     1.6446636088563458E-028
   1.2666666666666665E-005     7.9956395999221332E-029
   1.2866666666666663E-005    -7.0158525552381992E-029
   1.3066666666666661E-005    -2.8505175013431024E-028
   1.3266666666666666E-005    -5.4793852732103671E-028
   1.3466666666666664E-005    -8.2176508180990699E-028
   1.3666666666666662E-005    -1.0474952360111115E-027
   1.3866666666666660E-005    -1.1467068986055257E-027
   1.4066666666666665E-005    -1.0300491489164306E-027
   1.4266666666666663E-005    -6.1250934841413215E-028
   1.4466666666666661E-005     1.6467464064379937E-028
   1.4666666666666666E-005     1.3072371519563066E-027
   1.4866666666666664E-005     2.7400017756492991E-027
   1.5066666666666662E-005     4.2837248156766473E-027
   1.5266666666666661E-005     5.6442296397602948E-027
   1.5466666666666665E-005     6.4222339926812280E-027
   1.5666666666666663E-005     6.1516215564096652E-027
   1.5866666666666662E-005     4.3712086677358283E-027
   1.6066666666666660E-005     7.2995732235090881E-028
   1.6266666666666665E-005    -4.8818605828588256E-027
   1.6466666666666663E-005    -1.2192312205925392E-026
   1.6666666666666661E-005    -2.0424870001070938E-026
   1.6866666666666666E-005    -2.8228029765005223E-026
   1.7066666666666664E-005    -3.3697361141259657E-026
   1.7266666666666662E-005    -3.4528101011998687E-026
   1.7466666666666660E-005    -2.8325547195507358E-026
   1.7666666666666665E-005    -1.3078801083636870E-026
   1.7866666666666663E-005     1.2229241316396700E-026
   1.8066666666666661E-005     4.6944256950007287E-026
   1.8266666666666666E-005     8.8109235838068381E-026
   1.8466666666666664E-005     1.3003489598796245E-025
   1.8666666666666662E-005     1.6425364720202540E-025
   1.8866666666666660E-005     1.8003867597310422E-025
   1.9066666666666665E-005     1.6563087429194254E-025
   1.9266666666666663E-005     1.1023061726961168E-025
   1.9466666666666661E-005     6.6759618223927663E-027
   1.9666666666666666E-005    -1.4544892171656977E-025
   1.9866666666666664E-005    -3.3673244223493755E-025
   2.0066666666666662E-005    -5.4553105281729331E-025
   2.0266666666666660E-005    -7.3703250794103790E-025
   2.0466666666666665E-005    -8.6461336821534243E-025
   2.0666666666666663E-005    -8.7420040122354805E-025
   2.0866666666666661E-005    -7.1202987298669195E-025
   2.1066666666666659E-005    -3.3567227352403308E-025
   2.1266666666666664E-005     2.7253406282553647E-025
   2.1466666666666662E-005     1.0913431945119651E-024
   2.1666666666666660E-005     2.0483193771062005E-024
   2.1866666666666665E-005     3.0126610812767606E-024
   2.2066666666666663E-005     3.7967019127559153E-024
   2.2266666666666661E-005     4.1693818969818931E-024
   2.2466666666666659E-005     3.8839362193958994E-024
   2.2666666666666664E-005     2.7201189014014809E-024
   2.2866666666666662E-005     5.3851500222126007E-025
   2.3066666666666660E-005    -2.6589071923468783E-024
   2.3266666666666665E-005    -6.6714349948383908E-024
   2.3466666666666663E-005    -1.1058025070238880E-023
   2.3666666666666661E-005    -1.5125964581644746E-023
   2.3866666666666660E-005    -1.7964034603400079E-023
   2.4066666666666664E-005    -1.8531328397913969E-023
   2.4266666666666662E-005    -1.5806334014416319E-023
   2.4466666666666661E-005    -8.9909403829143373E-024
   2.4666666666666665E-005     2.2487191433243753E-024
   2.4866666666666663E-005     1.7536843746529801E-023
   2.5066666666666662E-005     3.5583405564195122E-023
   2.5266666666666660E-005     5.4075397805975941E-023
   2.5466666666666665E-005     6.9721179848369538E-023
   2.5666666666666663E-005     7.8497459319758152E-023
   2.5866666666666661E-005     7.6128175369978529E-023
   2.6066666666666666E-005     5.8791290280304738E-023
   2.6266666666666664E-005     2.4004530879223863E-023
   2.6466666666666662E-005    -2.8410717816108312E-023
   2.6666666666666660E-005    -9.5439952860195678E-023
   2.6866666666666665E-005    -1.7025454015037212E-022
   2.7066666666666663E-005    -2.4207278697984975E-022
   2.7266666666666661E-005    -2.9670315946115012E-022
   2.7466666666666666E-005    -3.1791371331334639E-022
   2.7666666666666664E-005    -2.8966878187021134E-022
   2.7866666666666662E-005    -1.9912752989511617E-022
   2.8066666666666667E-005    -4.0120651128337374E-023
   2.8266666666666658E-005     1.8336538164097526E-022
   2.8466666666666663E-005     4.5433228308324478E-022
   2.8666666666666668E-005     7.4127978271191560E-022
   2.8866666666666659E-005     9.9882375778042230E-022
   2.9066666666666664E-005     1.1710304413269899E-021
   2.9266666666666669E-005     1.1977877563321138E-021
   2.9466666666666660E-005     1.0240905955714640E-021
   2.9666666666666665E-005     6.1155026659787153E-022
   2.9866666666666656E-005    -4.9192915991726517E-023
   3.0066666666666661E-005    -9.2707049889874020E-022
   3.0266666666666666E-005    -1.9425672669598026E-021
   3.0466666666666657E-005    -2.9656119889703990E-021
   3.0666666666666662E-005    -3.8216794253898867E-021
   3.0866666666666667E-005    -4.3076843746505310E-021
   3.1066666666666658E-005    -4.2180249856224652E-021
   3.1266666666666663E-005    -3.3794537796591702E-021
   3.1466666666666668E-005    -1.6914827561329118E-021
   3.1666666666666659E-005     8.3297199390618466E-022
   3.1866666666666664E-005     4.0337062210912049E-021
   3.2066666666666656E-005     7.5840937273522263E-021
   3.2266666666666660E-005     1.0994607888355991E-020
   3.2466666666666665E-005     1.3645393449254720E-020
   3.2666666666666657E-005     1.4851230000673034E-020
   3.2866666666666661E-005     1.3957658531866158E-020
   3.3066666666666666E-005     1.0461294027847892E-020
   3.3266666666666658E-005     4.1411335041360986E-021
   3.3466666666666662E-005    -4.8182041192403303E-021
   3.3666666666666667E-005    -1.5734635148807117E-020
   3.3866666666666659E-005    -2.7393091302062051E-020
   3.4066666666666664E-005    -3.8089044957780818E-020
   3.4266666666666668E-005    -4.5767070853095696E-020
   3.4466666666666660E-005    -4.8259063613166064E-020
   3.4666666666666665E-005    -4.3611292705376302E-020
   3.4866666666666656E-005    -3.0471372041323515E-020
   3.5066666666666661E-005    -8.4878693715575082E-021
   3.5266666666666666E-005     2.1340429376880500E-020
   3.5466666666666657E-005     5.6438188966610949E-020
   3.5666666666666662E-005     9.2622838680348895E-020
   3.5866666666666667E-005     1.2433030575817307E-019
   3.6066666666666658E-005     1.4513255548611638E-019
   3.6266666666666663E-005     1.4854380732353486E-019
   3.6466666666666668E-005     1.2906375283595086E-019
   3.6666666666666659E-005     8.3352374308911330E-020
   3.6866666666666664E-005     1.1380146937754727E-020
   3.7066666666666669E-005    -8.2642119784934978E-020
   3.7266666666666660E-005    -1.8976688266879336E-019
   3.7466666666666665E-005    -2.9644806734902355E-019
   3.7666666666666656E-005    -3.8546543835965945E-019
   3.7866666666666661E-005    -4.3769990629224179E-019
   3.8066666666666666E-005    -4.3470267035705742E-019
   3.8266666666666657E-005    -3.6185581810739181E-019
   3.8466666666666662E-005    -2.1177097380058774E-019
   3.8666666666666667E-005     1.2562353366624170E-020
   3.8866666666666658E-005     2.9545655324994453E-019
   3.9066666666666663E-005     6.0763321799277409E-019
   3.9266666666666668E-005     9.0728452511609674E-019
   3.9466666666666659E-005     1.1434396560350625E-018
   3.9666666666666664E-005     1.2617029253595774E-018
   3.9866666666666655E-005     1.2120677616279431E-018
   4.0066666666666660E-005     9.5809099370228852E-019
   4.0266666666666665E-005     4.8630560253463041E-019
   4.0466666666666656E-005    -1.8558589606870491E-019
   4.0666666666666661E-005    -1.0033788652954968E-018
   4.0866666666666666E-005    -1.8755038766858223E-018
   4.1066666666666657E-005    -2.6779403324091817E-018
   4.1266666666666662E-005    -3.2656136795049182E-018
   4.1466666666666667E-005    -3.4901277333937071E-018
   4.1666666666666658E-005    -3.2226084256477571E-018
   4.1866666666666663E-005    -2.3793026249740984E-018
   4.2066666666666668E-005    -9.4652046836625124E-019
   4.2266666666666660E-005     9.9926381689415534E-019
   4.2466666666666664E-005     3.2806266421704963E-018
   4.2666666666666656E-005     5.6218280964682014E-018
   4.2866666666666661E-005     7.6678578673259089E-018
   4.3066666666666665E-005     9.0209942264409850E-018
   4.3266666666666657E-005     9.2934167160092109E-018
   4.3466666666666662E-005     8.1714769777245745E-018
   4.3666666666666666E-005     5.4842192231720939E-018
   4.3866666666666658E-005     1.2662242072007117E-018
   4.4066666666666663E-005    -4.1967307018273308E-018
   4.4266666666666667E-005    -1.0350792007166950E-017
   4.4466666666666659E-005    -1.6395767240125808E-017
   4.4666666666666664E-005    -2.1351531834331860E-017
   4.4866666666666655E-005    -2.4169450711420865E-017
   4.5066666666666660E-005    -2.3882032545502764E-017
   4.5266666666666665E-005    -1.9776183257243035E-017
   4.5466666666666656E-005    -1.1568108995432011E-017
   4.5666666666666661E-005     4.4765117878148287E-019
   4.5866666666666666E-005     1.5305138776007588E-017
   4.6066666666666657E-005     3.1358094292528941E-017
   4.6266666666666662E-005     4.6376850869306551E-017
   4.6466666666666667E-005     5.7760790755649375E-017
   4.6666666666666658E-005     6.2859944342237063E-017
   4.6866666666666663E-005     5.9380469054719876E-017
   4.7066666666666668E-005     4.5829305917509906E-017
   4.7266666666666659E-005     2.1936725846999852E-017
   4.7466666666666664E-005    -1.1015213518716460E-017
   4.7666666666666655E-005    -5.0032103587860956E-017
   4.7866666666666660E-005    -9.0478366133393358E-017
   4.8066666666666665E-005    -1.2642225107479143E-016
   4.8266666666666656E-005    -1.5126252380937239E-016
   4.8466666666666661E-005    -1.5860229962771991E-016
   4.8666666666666666E-005    -1.4328865580978963E-016
   4.8866666666666657E-005    -1.0249236827587811E-016
   4.9066666666666662E-005    -3.6667843211264990E-017
   4.9266666666666667E-005     4.9782794974378353E-017
   4.9466666666666658E-005     1.4831005741836197E-016
   4.9666666666666663E-005     2.4661426703848427E-016
   4.9866666666666655E-005     3.2970754901264777E-016
   5.0066666666666659E-005     3.8161972416776360E-016
   5.0266666666666664E-005     3.8762258743987510E-016
   5.0466666666666656E-005     3.3674021032382571E-016
   5.0666666666666660E-005     2.2422013176892434E-016
   5.0866666666666665E-005     5.3578316360536849E-017
   5.1066666666666657E-005    -1.6218380144328101E-016
   5.1266666666666661E-005    -4.0054635505308668E-016
   5.1466666666666666E-005    -6.3087086338459310E-016
   5.1666666666666658E-005    -8.1731098329339191E-016
   5.1866666666666662E-005    -9.2309953940574441E-016
   5.2066666666666667E-005    -9.1584079925725843E-016
   5.2266666666666659E-005    -7.7320987074333576E-016
   5.2466666666666664E-005    -4.8828597896754420E-016
   5.2666666666666655E-005    -7.3647889206771304E-017
   5.2866666666666660E-005     4.3661865665760875E-016
   5.3066666666666665E-005     9.8770161213476170E-016
   5.3266666666666656E-005     1.5080481799899667E-015
   5.3466666666666661E-005     1.9165714290891422E-015
   5.3666666666666666E-005     2.1326182287300352E-015
   5.3866666666666657E-005     2.0877479582003594E-015
   5.4066666666666662E-005     1.7379284336932717E-015
   5.4266666666666667E-005     1.0744454085275240E-015
   5.4466666666666658E-005     1.3170418942435073E-016
   5.4666666666666663E-005    -1.0097670216327271E-015
   5.4866666666666668E-005    -2.2263936895261952E-015
   5.5066666666666659E-005    -3.3613444543313145E-015
   5.5266666666666664E-005    -4.2407936095544602E-015
   5.5466666666666655E-005    -4.6954491892930082E-015
   5.5666666666666660E-005    -4.5851793950259979E-015
   5.5866666666666665E-005    -3.8237609626130775E-015
   5.6066666666666656E-005    -2.4002682273158789E-015
   5.6266666666666661E-005    -3.9352668649722084E-016
   5.6466666666666666E-005     2.0235451261789294E-015
   5.6666666666666657E-005     4.5919667719819264E-015
   5.6866666666666662E-005     6.9879777392055603E-015
   5.7066666666666667E-005     8.8567427935443969E-015
   5.7266666666666658E-005     9.8557920414703093E-015
   5.7466666666666663E-005     9.7037360254441154E-015
   5.7666666666666654E-005     8.2283939338960456E-015
   5.7866666666666659E-005     5.4076606229870777E-015
   5.8066666666666664E-005     1.3964370517037544E-015
   5.8266666666666655E-005    -3.4661539427779183E-015
   5.8466666666666660E-005    -8.6732119563140427E-015
   5.8666666666666665E-005    -1.3591476690494950E-014
   5.8866666666666656E-005    -1.7525898977528110E-014
   5.9066666666666661E-005    -1.9802154420363686E-014
   5.9266666666666666E-005    -1.9858754431599092E-014
   5.9466666666666657E-005    -1.7337997428976091E-014
   5.9666666666666662E-005    -1.2163607428868522E-014
   5.9866666666666667E-005    -4.5930028501741353E-015
   6.0066666666666659E-005     4.7662417647674063E-015
   6.0266666666666663E-005     1.4982903031003796E-014
   6.0466666666666655E-005     2.4874242633187270E-014
   6.0666666666666660E-005     3.3120820256282347E-014
   6.0866666666666664E-005     3.8415249480287403E-014
   6.1066666666666656E-005     3.9630679049616613E-014
   6.1266666666666661E-005     3.5990310044845481E-014
   6.1466666666666665E-005     2.7216750578685522E-014
   6.1666666666666657E-005     1.3639661475724440E-014
   6.1866666666666662E-005    -3.7574373879801148E-015
   6.2066666666666666E-005    -2.3365342365369958E-014
   6.2266666666666658E-005    -4.3059084064310329E-014
   6.2466666666666663E-005    -6.0387139431369337E-014
   6.2666666666666668E-005    -7.2827585965302739E-014
   6.2866666666666659E-005    -7.8089018664436726E-014
   6.3066666666666664E-005    -7.4425747097656809E-014
   6.3266666666666655E-005    -6.0931142848271833E-014
   6.3466666666666660E-005    -3.7770648105428139E-014
   6.3666666666666665E-005    -6.3182722138206352E-015
   6.3866666666666656E-005     3.0833061818716082E-014
   6.4066666666666661E-005     7.0006155633076528E-014
   6.4266666666666666E-005     1.0672312570865724E-013
   6.4466666666666657E-005     1.3612538427718787E-013
   6.4666666666666662E-005     1.5349962798399207E-013
   6.4866666666666667E-005     1.5486279861269458E-013
   6.5066666666666658E-005     1.3754606977478379E-013
   6.5266666666666663E-005     1.0070920558396897E-013
   6.5466666666666654E-005     4.5715526446396706E-014
   6.5666666666666659E-005    -2.3696103945341081E-014
   6.5866666666666664E-005    -1.0149209266802067E-013
   6.6066666666666655E-005    -1.7970467347958751E-013
   6.6266666666666660E-005    -2.4907185356322016E-013
   6.6466666666666665E-005    -2.9992386048235528E-013
   6.6666666666666656E-005    -3.2325068905880980E-013
   6.6866666666666661E-005    -3.1185455705475100E-013
   6.7066666666666666E-005    -2.6146809658715958E-013
   6.7266666666666657E-005    -1.7170464431985332E-013
   6.7466666666666662E-005    -4.6706702480680286E-014
   6.7666666666666667E-005     1.0462662085993930E-013
   6.7866666666666658E-005     2.6892296806808771E-013
   6.8066666666666663E-005     4.2917556629278139E-013
   6.8266666666666655E-005     5.6612604763386871E-013
   6.8466666666666659E-005     6.6011650301043207E-013
   6.8666666666666664E-005     6.9327203802519678E-013
   6.8866666666666656E-005     6.5181578272668514E-013
   6.9066666666666660E-005     5.2827597097618117E-013
   6.9266666666666665E-005     3.2331914715929011E-013
   6.9466666666666657E-005     4.6947050230411180E-014
   6.9666666666666661E-005    -2.8117333461270735E-013
   6.9866666666666666E-005    -6.3241150805101210E-013
   7.0066666666666658E-005    -9.7098512550574228E-013
   7.0266666666666662E-005    -1.2568436067708419E-012
   7.0466666666666654E-005    -1.4494609659699287E-012
   7.0666666666666659E-005    -1.5122547059473891E-012
   7.0866666666666664E-005    -1.4172311430282369E-012
   7.1066666666666655E-005    -1.1493820780863081E-012
   7.1266666666666660E-005    -7.1031390374348276E-013
   7.1466666666666665E-005    -1.2059932598588335E-013
   7.1666666666666656E-005     5.7958350862792751E-013
   7.1866666666666661E-005     1.3318406919572418E-012
   7.2066666666666666E-005     2.0631216158791002E-012
   7.2266666666666657E-005     2.6913646715711274E-012
   7.2466666666666662E-005     3.1329246557914071E-012
   7.2666666666666667E-005     3.3112370328161474E-012
   7.2866666666666658E-005     3.1659717309440204E-012
   7.3066666666666663E-005     2.6617831785057726E-012
   7.3266666666666654E-005     1.7956767215516670E-012
   7.3466666666666659E-005     6.0204441238553601E-013
   7.3666666666666664E-005    -8.4547502788996580E-013
   7.3866666666666655E-005    -2.4359270033701297E-012
   7.4066666666666660E-005    -4.0270702954741959E-012
   7.4266666666666665E-005    -5.4554409557515594E-012
   7.4466666666666656E-005    -6.5499551384540007E-012
   7.4666666666666661E-005    -7.1481524729998545E-012
   7.4866666666666666E-005    -7.1137969414972292E-012
   7.5066666666666657E-005    -6.3542567774534324E-012
   7.5266666666666662E-005    -4.8359155082968046E-012
   7.5466666666666653E-005    -2.5958378741574874E-012