  -3.3333333333333335E-005     0.0000000000000000     
  -3.3133333333333337E-005     0.0000000000000000     
  -3.2933333333333332E-005     0.0000000000000000     
  -3.2733333333333334E-005     0.0000000000000000     
  -3.2533333333333336E-005     0.0000000000000000     
  -3.2333333333333338E-005     0.0000000000000000     
  -3.2133333333333333E-005     0.0000000000000000     
  -3.1933333333333335E-005     0.0000000000000000     
  -3.1733333333333337E-005     0.0000000000000000     
  -3.1533333333333332E-005     0.0000000000000000     
  -3.1333333333333334E-005     0.0000000000000000     
  -3.1133333333333336E-005     0.0000000000000000     
  -3.0933333333333338E-005     0.0000000000000000     
  -3.0733333333333333E-005     0.0000000000000000     
  -3.0533333333333335E-005     0.0000000000000000     
  -3.0333333333333337E-005     0.0000000000000000     
  -3.0133333333333335E-005     0.0000000000000000     
  -2.9933333333333334E-005     0.0000000000000000     
  -2.9733333333333336E-005     0.0000000000000000     
  -2.9533333333333334E-005     0.0000000000000000     
  -2.9333333333333336E-005     0.0000000000000000     
  -2.9133333333333334E-005     0.0000000000000000     
  -2.8933333333333336E-005     0.0000000000000000     
  -2.8733333333333335E-005     0.0000000000000000     
  -2.8533333333333333E-005     0.0000000000000000     
  -2.8333333333333335E-005     0.0000000000000000     
  -2.8133333333333337E-005     0.0000000000000000     
  -2.7933333333333336E-005     0.0000000000000000     
  -2.7733333333333334E-005     0.0000000000000000     
  -2.7533333333333336E-005     0.0000000000000000     
  -2.7333333333333335E-005     0.0000000000000000     
  -2.7133333333333333E-005     0.0000000000000000     
  -2.6933333333333335E-005     0.0000000000000000     
  -2.6733333333333337E-005     0.0000000000000000     
  -2.6533333333333336E-005     0.0000000000000000     
  -2.6333333333333334E-005     0.0000000000000000     
  -2.6133333333333336E-005     0.0000000000000000     
  -2.5933333333333335E-005     0.0000000000000000     
  -2.5733333333333333E-005     0.0000000000000000     
  -2.5533333333333335E-005     0.0000000000000000     
  -2.5333333333333337E-005     0.0000000000000000     
  -2.5133333333333336E-005     0.0000000000000000     
  -2.4933333333333334E-005     0.0000000000000000     
  -2.4733333333333336E-005     0.0000000000000000     
  -2.4533333333333334E-005     0.0000000000000000     
  -2.4333333333333333E-005     0.0000000000000000     
  -2.4133333333333335E-005     0.0000000000000000     
  -2.3933333333333337E-005     0.0000000000000000     
  -2.3733333333333335E-005     0.0000000000000000     
  -2.3533333333333334E-005     0.0000000000000000     
  -2.3333333333333336E-005     0.0000000000000000     
  -2.3133333333333338E-005     0.0000000000000000     
  -2.2933333333333336E-005     0.0000000000000000     
  -2.2733333333333335E-005     0.0000000000000000     
  -2.2533333333333337E-005     0.0000000000000000     
  -2.2333333333333335E-005     0.0000000000000000     
  -2.2133333333333334E-005     0.0000000000000000     
  -2.1933333333333336E-005     0.0000000000000000     
  -2.1733333333333338E-005     0.0000000000000000     
  -2.1533333333333336E-005     0.0000000000000000     
  -2.1333333333333335E-005     0.0000000000000000     
  -2.1133333333333337E-005     0.0000000000000000     
  -2.0933333333333335E-005     0.0000000000000000     
  -2.0733333333333334E-005     0.0000000000000000     
  -2.0533333333333336E-005     0.0000000000000000     
  -2.0333333333333337E-005     0.0000000000000000     
  -2.0133333333333336E-005     0.0000000000000000     
  -1.9933333333333334E-005    -3.2247910357418165E-041
  -1.9733333333333336E-005    -7.9174364305916871E-041
  -1.9533333333333335E-005    -1.1443111790402820E-040
  -1.9333333333333333E-005     5.6192852570713018E-041
  -1.9133333333333335E-005     5.1687752254693381E-040
  -1.8933333333333337E-005     1.5011743813000753E-039
  -1.8733333333333336E-005     1.1918116418924877E-039
  -1.8533333333333334E-005    -2.3331229932827399E-039
  -1.8333333333333336E-005    -1.0825310134938335E-038
  -1.8133333333333335E-005    -2.4970039425743734E-038
  -1.7933333333333337E-005    -3.7352897066569289E-038
  -1.7733333333333335E-005    -3.7534270743674269E-038
  -1.7533333333333337E-005    -1.9906830432326944E-038
  -1.7333333333333336E-005     6.5758224582416321E-038
  -1.7133333333333334E-005     2.7273322297897722E-037
  -1.6933333333333336E-005     6.6230105978872403E-037
  -1.6733333333333335E-005     1.2054951285724213E-036
  -1.6533333333333337E-005     1.7121153909594110E-036
  -1.6333333333333335E-005     1.6880955042676044E-036
  -1.6133333333333337E-005     2.3391667407979738E-037
  -1.5933333333333336E-005    -3.9097104689148184E-036
  -1.5733333333333334E-005    -1.1963364665930771E-035
  -1.5533333333333336E-005    -2.4115650097643410E-035
  -1.5333333333333334E-005    -3.7774489007152130E-035
  -1.5133333333333336E-005    -4.5214226270965273E-035
  -1.4933333333333335E-005    -3.1422786089521435E-035
  -1.4733333333333337E-005     2.6045703540151430E-035
  -1.4533333333333335E-005     1.5226937630121822E-034
  -1.4333333333333337E-005     3.6158262358791144E-034
  -1.4133333333333336E-005     6.3282763020373373E-034
  -1.3933333333333334E-005     8.7419342197863056E-034
  -1.3733333333333336E-005     8.8660551384076736E-034
  -1.3533333333333335E-005     3.4713027938722731E-034
  -1.3333333333333337E-005    -1.1513971856385343E-033
  -1.3133333333333335E-005    -3.9577138724523036E-033
  -1.2933333333333337E-005    -8.0745964553135321E-033
  -1.2733333333333336E-005    -1.2720692555006832E-032
  -1.2533333333333338E-005    -1.5818157112252352E-032
  -1.2333333333333336E-005    -1.3616192604654383E-032
  -1.2133333333333335E-005    -8.2726505792061564E-034
  -1.1933333333333337E-005     2.8205227190722710E-032
  -1.1733333333333335E-005     7.6778343525286163E-032
  -1.1533333333333337E-005     1.4128095225220773E-031
  -1.1333333333333336E-005     2.0527218769626311E-031
  -1.1133333333333337E-005     2.3385913388151565E-031
  -1.0933333333333336E-005     1.7168222417340007E-031
  -1.0733333333333334E-005    -5.0570244997078220E-032
  -1.0533333333333336E-005    -4.9546946898009342E-031
  -1.0333333333333335E-005    -1.1797497365438427E-030
  -1.0133333333333337E-005    -2.0175785845412577E-030
  -9.9333333333333354E-006    -2.7565486043247119E-030
  -9.7333333333333373E-006    -2.9306248774226789E-030
  -9.5333333333333358E-006    -1.8697861502958833E-030
  -9.3333333333333343E-006     1.1827264815346505E-030
  -9.1333333333333362E-006     6.7972274699961232E-030
  -8.9333333333333348E-006     1.4907943659278447E-029
  -8.7333333333333367E-006     2.4229466803844708E-029
  -8.5333333333333352E-006     3.1682917351361829E-029
  -8.3333333333333371E-006     3.2101899619995032E-029
  -8.1333333333333356E-006     1.8605609155140773E-029
  -7.9333333333333376E-006    -1.5926474990187603E-029
  -7.7333333333333361E-006    -7.5947811035954214E-029
  -7.5333333333333346E-006    -1.5891382241277024E-028
  -7.3333333333333365E-006    -2.5015746338107031E-028
  -7.1333333333333351E-006    -3.1847742118976142E-028
  -6.9333333333333370E-006    -3.1490956455823112E-028
  -6.7333333333333355E-006    -1.7786873693243951E-028
  -6.5333333333333374E-006     1.5217772704153547E-028
  -6.3333333333333359E-006     7.0669532449401439E-028
  -6.1333333333333379E-006     1.4530791499532455E-027
  -5.9333333333333364E-006     2.2551178070381021E-027
  -5.7333333333333349E-006     2.8428504657189943E-027
  -5.5333333333333368E-006     2.8110815959514470E-027
  -5.3333333333333354E-006     1.6693777524476756E-027
  -5.1333333333333373E-006    -1.0362512950597538E-027
  -4.9333333333333358E-006    -5.5221457950365017E-027
  -4.7333333333333377E-006    -1.1502853815067750E-026
  -4.5333333333333362E-006    -1.7916566040688328E-026
  -4.3333333333333348E-006    -2.2734672321843493E-026
  -4.1333333333333367E-006    -2.2986805742083120E-026
  -3.9333333333333352E-006    -1.5147156891501111E-026
  -3.7333333333333371E-006     4.0009326599946494E-027
  -3.5333333333333356E-006     3.5995843120828111E-026
  -3.3333333333333376E-006     7.8959556598500166E-026
  -3.1333333333333361E-006     1.2584896527591642E-025
  -2.9333333333333346E-006     1.6329945575317836E-025
  -2.7333333333333365E-006     1.7185986669924551E-025
  -2.5333333333333384E-006     1.2846457868407617E-025
  -2.3333333333333336E-006     1.1776899123860401E-026
  -2.1333333333333355E-006    -1.8952402221097374E-025
  -1.9333333333333374E-006    -4.6638123428969618E-025
  -1.7333333333333393E-006    -7.7902657233478957E-025
  -1.5333333333333345E-006    -1.0500806979033751E-024
  -1.3333333333333364E-006    -1.1654706775518649E-024
  -1.1333333333333383E-006    -9.8768972789080750E-025
  -9.3333333333333343E-007    -3.8469591464221451E-025
  -7.3333333333333535E-007     7.2525846900332239E-025
  -5.3333333333333726E-007     2.3174235594668488E-024
  -3.3333333333333918E-007     4.2037344963706383E-024
  -1.3333333333333432E-007     5.9925302176729632E-024
   6.6666666666663770E-008     7.0866521443337486E-024
   2.6666666666666185E-007     6.7423923083970140E-024
   4.6666666666666672E-007     4.2059022451276460E-024
   6.6666666666666480E-007    -1.0703131079864758E-024
   8.6666666666666289E-007    -9.1505260049216645E-024
   1.0666666666666610E-006    -1.9326558877817714E-023
   1.2666666666666658E-006    -2.9893351893321091E-023
   1.4666666666666639E-006    -3.8088219800613745E-023
   1.6666666666666620E-006    -4.0297242211752424E-023
   1.8666666666666669E-006    -3.2609420935494500E-023
   2.0666666666666649E-006    -1.1742334027506089E-023
   2.2666666666666630E-006     2.3728515055323901E-023
   2.4666666666666611E-006     7.2021907313659314E-023
   2.6666666666666660E-006     1.2699261528466478E-022
   2.8666666666666641E-006     1.7756740801437503E-022
   3.0666666666666622E-006     2.0821322029101910E-022
   3.2666666666666602E-006     2.0080606722421537E-022
   3.4666666666666651E-006     1.3807095402955527E-022
   3.6666666666666632E-006     8.4303695657890553E-024
   3.8666666666666613E-006    -1.8833791440855907E-022
   4.0666666666666661E-006    -4.3570730811643033E-022
   4.2666666666666642E-006    -6.9675068779459751E-022
   4.4666666666666623E-006    -9.1390999325378980E-022
   4.6666666666666604E-006    -1.0137325043813001E-021
   4.8666666666666652E-006    -9.1754871664623002E-022
   5.0666666666666633E-006    -5.5802473287057728E-022
   5.2666666666666614E-006     9.9917980075417040E-023
   5.4666666666666663E-006     1.0369672745413519E-021
   5.6666666666666644E-006     2.1607517215901149E-021
   5.8666666666666624E-006     3.2963413957377457E-021
   6.0666666666666605E-006     4.1916987037221528E-021
   6.2666666666666654E-006     4.5426520221547240E-021
   6.4666666666666635E-006     4.0392912527058792E-021
   6.6666666666666616E-006     2.4316529887969230E-021
   6.8666666666666664E-006    -3.9239344095842012E-022
   7.0666666666666645E-006    -4.3292685574946339E-021
   7.2666666666666626E-006    -8.9982401706243544E-021
   7.4666666666666607E-006    -1.3715017312727893E-020
   7.6666666666666655E-006    -1.7518051158449972E-020
   7.8666666666666636E-006    -1.9260467993519129E-020
   8.0666666666666617E-006    -1.7771795787404579E-020
   8.2666666666666598E-006    -1.2081505445353897E-020
   8.4666666666666647E-006    -1.6821837750505543E-021
   8.6666666666666627E-006     1.3204070233238351E-020
   8.8666666666666608E-006     3.1404268429204893E-020
   9.0666666666666657E-006     5.0673077380233378E-020
   9.2666666666666638E-006     6.7725680744705253E-020
   9.4666666666666619E-006     7.8469629590152559E-020
   9.6666666666666599E-006     7.8461120530151673E-020
   9.8666666666666648E-006     6.3582316950816937E-020
   1.0066666666666663E-005     3.0899799613270493E-020
   1.0266666666666661E-005    -2.0377437669446432E-020
   1.0466666666666666E-005    -8.7965129451828921E-020
   1.0666666666666664E-005    -1.6576012037384774E-019
   1.0866666666666662E-005    -2.4347918342947464E-019
   1.1066666666666660E-005    -3.0688469235905687E-019
   1.1266666666666665E-005    -3.3878582941743341E-019
   1.1466666666666663E-005    -3.2095055105802028E-019
   1.1666666666666661E-005    -2.3696436208879583E-019
   1.1866666666666666E-005    -7.5921877895353019E-020
   1.2066666666666664E-005     1.6336421335292263E-019
   1.2266666666666662E-005     4.6818693929179823E-019
   1.2466666666666660E-005     8.0859478305310624E-019
   1.2666666666666665E-005     1.1358600880942071E-018
   1.2866666666666663E-005     1.3838560891233331E-018
   1.3066666666666661E-005     1.4743449873755559E-018
   1.3266666666666666E-005     1.3268502308467044E-018
   1.3466666666666664E-005     8.7314744265588823E-019
   1.3666666666666662E-005     7.5480759074766735E-020
   1.3866666666666660E-005    -1.0535612041523617E-018
   1.4066666666666665E-005    -2.4328213787116191E-018
   1.4266666666666663E-005    -3.9004125094671480E-018
   1.4466666666666661E-005    -5.2126366309050102E-018
   1.4666666666666666E-005    -6.0588194836904666E-018
   1.4866666666666664E-005    -6.0955608168439305E-018
   1.5066666666666662E-005    -5.0012804182438070E-018
   1.5266666666666661E-005    -2.5480551199698000E-018
   1.5466666666666665E-005     1.3171052001275085E-018
   1.5666666666666663E-005     6.3944394378398557E-018
   1.5866666666666662E-005     1.2174302257318126E-017
   1.6066666666666660E-005     1.7820261779333391E-017
   1.6266666666666665E-005     2.2211068532515214E-017
   1.6466666666666663E-005     2.4054925175083972E-017
   1.6666666666666661E-005     2.2079564956069841E-017
   1.6866666666666666E-005     1.5287359601099851E-017
   1.7066666666666664E-005     3.2474977219688013E-018
   1.7266666666666662E-005    -1.3620263175377818E-017
   1.7466666666666660E-005    -3.3829901195470469E-017
   1.7666666666666665E-005    -5.4748027316532758E-017
   1.7866666666666663E-005    -7.2709474169371620E-017
   1.8066666666666661E-005    -8.3372966332911618E-017
   1.8266666666666666E-005    -8.2326701081377913E-017
   1.8466666666666664E-005    -6.5907012731494502E-017
   1.8666666666666662E-005    -3.2138929248829647E-017
   1.8866666666666660E-005     1.8345953722533225E-017
   1.9066666666666665E-005     8.1599962468389497E-017
   1.9266666666666663E-005     1.5006125892235394E-016
   1.9466666666666661E-005     2.1285206546932552E-016
   1.9666666666666666E-005     2.5679815455254374E-016
   1.9866666666666664E-005     2.6819217774861664E-016
   2.0066666666666662E-005     2.3518539447599512E-016
   2.0266666666666660E-005     1.5053783722049576E-016
   2.0466666666666665E-005     1.4308341236696707E-017
   2.0666666666666663E-005    -1.6404219588288780E-016
   2.0866666666666661E-005    -3.6469893558128358E-016
   2.1066666666666659E-005    -5.5819634604544733E-016
   2.1266666666666664E-005    -7.0810622426501235E-016
   2.1466666666666662E-005    -7.7575447370798883E-016
   2.1666666666666660E-005    -7.2664047708712442E-016
   2.1866666666666665E-005    -5.3782346603151896E-016
   2.2066666666666663E-005    -2.0516552429195943E-016
   2.2266666666666661E-005     2.5094779412868505E-016
   2.2466666666666659E-005     7.8285978061369208E-016
   2.2666666666666664E-005     1.3171416717881456E-015
   2.2866666666666662E-005     1.7611490801094813E-015
   2.3066666666666660E-005     2.0147150227238770E-015
   2.3266666666666665E-005     1.9861324696604957E-015
   2.3466666666666663E-005     1.6105802351371721E-015
   2.3666666666666661E-005     8.6824676342772572E-016
   2.3866666666666660E-005    -2.0120544662766213E-016
   2.4066666666666664E-005    -1.4913296596555673E-015
   2.4266666666666662E-005    -2.8317637647414542E-015
   2.4466666666666661E-005    -4.0031679024714684E-015
   2.4666666666666665E-005    -4.7643786114973753E-015
   2.4866666666666663E-005    -4.8897534798664210E-015
   2.5066666666666662E-005    -4.2123747353055599E-015
   2.5266666666666660E-005    -2.6667515003172750E-015
   2.5466666666666665E-005    -3.2330165500130817E-016
   2.5666666666666663E-005     2.5933580100398576E-015
   2.5866666666666661E-005     5.7091630586176515E-015
   2.6066666666666666E-005     8.5326650873911115E-015
   2.6266666666666664E-005     1.0514754208620656E-014
   2.6466666666666662E-005     1.1131565118529706E-014
   2.6666666666666660E-005     9.9810408277914206E-015
   2.6866666666666665E-005     6.8791742838008235E-015
   2.7066666666666663E-005     1.9390170073144629E-015
   2.7266666666666661E-005    -4.3849751451976749E-015
   2.7466666666666666E-005    -1.1302334287650161E-014
   2.7666666666666664E-005    -1.7751240953190550E-014
   2.7866666666666662E-005    -2.2523672761245917E-014
   2.8066666666666667E-005    -2.4442047984905902E-014
   2.8266666666666658E-005    -2.2567646334711886E-014
   2.8466666666666663E-005    -1.6411601896201138E-014
   2.8666666666666668E-005    -6.1129186183879629E-015
   2.8866666666666659E-005     7.4535365425687866E-015
   2.9066666666666664E-005     2.2671617455877263E-014
   2.9266666666666669E-005     3.7302722140721866E-014
   2.9466666666666660E-005     4.8733722635690689E-014
   2.9666666666666665E-005     5.4338281115136369E-014
   2.9866666666666656E-005     5.1913681626798346E-014
   3.0066666666666661E-005     4.0135451140357589E-014
   3.0266666666666666E-005     1.8957993564537588E-014
   3.0466666666666657E-005    -1.0115351017475026E-014
   3.0666666666666662E-005    -4.3962397888923405E-014
   3.0866666666666667E-005    -7.8022476877858123E-014
   3.1066666666666658E-005    -1.0674568500383991E-013
   3.1266666666666663E-005    -1.2428988633468243E-013
   3.1466666666666668E-005    -1.2540045229574178E-013
   3.1666666666666659E-005    -1.0636661916105954E-013
   3.1866666666666664E-005    -6.5917516871019573E-014
   3.2066666666666656E-005    -5.9052805682976377E-015
   3.2266666666666660E-005     6.8370317617329251E-014
   3.2466666666666665E-005     1.4831138925095818E-013
   3.2666666666666657E-005     2.2270757578288129E-013
   3.2866666666666661E-005     2.7894820652633786E-013
   3.3066666666666666E-005     3.0466925624997519E-013
   3.3266666666666658E-005     2.8966211863799792E-013
   3.3466666666666662E-005     2.2780309256953791E-013
   3.3666666666666667E-005     1.1872040194316815E-013
   3.3866666666666659E-005    -3.1091702389887251E-014
   3.4066666666666664E-005    -2.0796615334379121E-013
   3.4266666666666668E-005    -3.9174073178042222E-013
   3.4466666666666660E-005    -5.5748173666188212E-013
   3.4666666666666665E-005    -6.7817412952574624E-013
   3.4866666666666656E-005    -7.2814982241736763E-013
   3.5066666666666661E-005    -6.8688870082977613E-013
   3.5266666666666666E-005    -5.4272084076752348E-013
   3.5466666666666657E-005    -2.9590716422695195E-013
   3.5666666666666662E-005     3.9411241964484848E-014
   3.5866666666666667E-005     4.3482160274984348E-013
   3.6066666666666658E-005     8.4907840309533524E-013
   3.6266666666666663E-005     1.2314385234268299E-012
   3.6466666666666668E-005     1.5267180323739366E-012
   3.6666666666666659E-005     1.6816502343467612E-012
   3.6866666666666664E-005     1.6519103961987737E-012
   3.7066666666666669E-005     1.4090110422642884E-012
   3.7266666666666660E-005     9.4620024531557389E-013
   3.7466666666666665E-005     2.8252023049870637E-013
   3.7666666666666656E-005    -5.3568371616231360E-013
   3.7866666666666661E-005    -1.4362865255461789E-012
   3.8066666666666666E-005    -2.3261136049107226E-012
   3.8266666666666657E-005    -3.0987056557177658E-012
   3.8466666666666662E-005    -3.6445884199785749E-012
   3.8666666666666667E-005    -3.8631884677157584E-012
   3.8866666666666658E-005    -3.6752914399044907E-012
   3.9066666666666663E-005    -3.0347751236711805E-012
   3.9266666666666668E-005    -1.9383118919878889E-012
   3.9466666666666659E-005    -4.3183873142820510E-013
   3.9666666666666664E-005     1.3872238120212062E-012
   3.9866666666666655E-005     3.3726898836421090E-012
   4.0066666666666660E-005     5.3375793121917064E-012
   4.0266666666666665E-005     7.0672093495376490E-012
   4.0466666666666656E-005     8.3368246426450197E-012
   4.0666666666666661E-005     8.9327336685657067E-012
   4.0866666666666666E-005     8.6755110890081295E-012
   4.1066666666666657E-005     7.4434603814430912E-012
   4.1266666666666662E-005     5.1942724519897559E-012
   4.1466666666666667E-005     1.9826354590281638E-012
   4.1666666666666658E-005    -2.0284816772819829E-012
   4.1866666666666663E-005    -6.5650159037200007E-012
   4.2066666666666668E-005    -1.1249284530483622E-011
   4.2266666666666660E-005    -1.5619025076872033E-011
   4.2466666666666664E-005    -1.9158438641675435E-011
   4.2666666666666656E-005    -2.1340653974508362E-011
   4.2866666666666661E-005    -2.1679762525322233E-011
   4.3066666666666665E-005    -1.9789138959006090E-011
   4.3266666666666657E-005    -1.5441380761393280E-011
   4.3466666666666662E-005    -8.6238770306356749E-012
   4.3666666666666666E-005     4.1688870231876246E-013
   4.3866666666666658E-005     1.1149587510526525E-011
   4.4066666666666663E-005     2.2757739325599060E-011
   4.4266666666666667E-005     3.4170458415234240E-011
   4.4466666666666659E-005     4.4127522600835671E-011
   4.4666666666666664E-005     5.1278862079969681E-011
   4.4866666666666655E-005     5.4314470827868878E-011
   4.5066666666666660E-005     5.2116349646376091E-011
   4.5266666666666665E-005     4.3919686277554207E-011
   4.5466666666666656E-005     2.9466581546346617E-011
   4.5666666666666661E-005     9.1331612299539428E-012
   4.5866666666666666E-005    -1.5989930718765771E-011
   4.6066666666666657E-005    -4.4082162872734314E-011
   4.6266666666666662E-005    -7.2657238697919405E-011
   4.6466666666666667E-005    -9.8714602323692286E-011
   4.6666666666666658E-005    -1.1897713294272643E-010
   4.6866666666666663E-005    -1.3020377347085910E-010
   4.7066666666666668E-005    -1.2955483759582864E-010
   4.7266666666666659E-005    -1.1497752449761660E-010
   4.7466666666666664E-005    -8.5571255300277861E-011
   4.7666666666666655E-005    -4.1887810445064541E-011
   4.7866666666666660E-005     1.3878831977096977E-011
   4.8066666666666665E-005     7.7853003040783161E-011
   4.8266666666666656E-005     1.4461721672485318E-010
   4.8466666666666661E-005     2.0754475866139222E-010
   4.8666666666666666E-005     2.5931903838244108E-010
   4.8866666666666657E-005     2.9261104384085680E-010
   4.9066666666666662E-005     3.0086483093249460E-010
   4.9266666666666667E-005     2.7912176803899976E-010
   4.9466666666666658E-005     2.2479899229242706E-010
   4.9666666666666663E-005     1.3833151434621465E-010
   4.9866666666666655E-005     2.3589039689055241E-011
   5.0066666666666659E-005    -1.1200931858646691E-010
   5.0266666666666664E-005    -2.5773740871069800E-010
   5.0466666666666656E-005    -4.0018564324627968E-010
   5.0666666666666660E-005    -5.2425265714807190E-010
   5.0866666666666665E-005    -6.1445318804143321E-010
   5.1066666666666657E-005    -6.5644846773168397E-010
   5.1266666666666661E-005    -6.3867286689986292E-010
   5.1466666666666666E-005    -5.5390360935597855E-010
   5.1666666666666658E-005    -4.0060745623189440E-010
   5.1866666666666662E-005    -1.8390004287339707E-010
   5.2066666666666667E-005     8.4027833533865523E-011
   5.2266666666666659E-005     3.8412861775650746E-010
   5.2466666666666664E-005     6.9142279043151520E-010
   5.2666666666666655E-005     9.7663121862218120E-010
   5.2866666666666660E-005     1.2084462949255457E-009
   5.3066666666666665E-005     1.3563080477755033E-009
   5.3266666666666656E-005     1.3934807660600556E-009
   5.3466666666666661E-005     1.3001772920792281E-009
   5.3666666666666666E-005     1.0664380888971102E-009
   5.3866666666666657E-005     6.9446175477692651E-010
   5.4066666666666662E-005     2.0009105125094462E-010
   5.4266666666666667E-005    -3.8679458019630381E-010
   5.4466666666666658E-005    -1.0231664998277126E-009
   5.4666666666666663E-005    -1.6551018153018917E-009
   5.4866666666666668E-005    -2.2213812680108466E-009
   5.5066666666666659E-005    -2.6582747849902565E-009
   5.5266666666666664E-005    -2.9052331520350786E-009
   5.5466666666666655E-005    -2.9110742667913864E-009
   5.5666666666666660E-005    -2.6401548277569182E-009
   5.5866666666666665E-005    -2.0779474453681255E-009
   5.6066666666666656E-005    -1.2354136664331343E-009
   5.6266666666666661E-005    -1.5159766784337547E-010
   5.6466666666666666E-005     1.1060590313301637E-009
   5.6666666666666657E-005     2.4440283685882350E-009
   5.6866666666666662E-005     3.7477883745952711E-009
   5.7066666666666667E-005     4.8896054034293082E-009
   5.7266666666666658E-005     5.7386542671104460E-009
   5.7466666666666663E-005     6.1728492560981492E-009
   5.7666666666666654E-005     6.0915139128633283E-009
   5.7866666666666659E-005     5.4278107599018209E-009
   5.8066666666666664E-005     4.1597372368550375E-009
   5.8266666666666655E-005     2.3184568390599993E-009
   5.8466666666666660E-005    -7.1829375033747683E-012
   5.8666666666666665E-005    -2.6708618332935715E-009
   5.8866666666666656E-005    -5.4743725380005131E-009
   5.9066666666666661E-005    -8.1787437618866915E-009
   5.9266666666666666E-005    -1.0520623249806064E-008
   5.9466666666666657E-005    -1.2233102059897446E-008
   5.9666666666666662E-005    -1.3069639241569220E-008
   5.9866666666666667E-005    -1.2829301832652608E-008
   6.0066666666666659E-005    -1.1381211965564532E-008
   6.0266666666666663E-005    -8.6858673578583654E-009
   6.0466666666666655E-005    -4.8110513035633624E-009
   6.0666666666666660E-005     5.9793579239436462E-011
   6.0866666666666664E-005     5.6284054217106747E-009
   6.1066666666666656E-005     1.1492842647044500E-008
   6.1266666666666661E-005     1.7169237275764707E-008
   6.1466666666666665E-005     2.2123572605284009E-008
   6.1666666666666657E-005     2.5812013129498616E-008
   6.1866666666666662E-005     2.7727347284489421E-008
   6.2066666666666666E-005     2.7448349238596592E-008
   6.2266666666666658E-005     2.4688186443848972E-008
   6.2466666666666663E-005     1.9337643738105066E-008
   6.2666666666666668E-005     1.1498825919688882E-008
   6.2866666666666659E-005     1.5052332174498192E-009
   6.3066666666666664E-005    -1.0075227312687234E-008
   6.3266666666666655E-005    -2.2456816411239507E-008
   6.3466666666666660E-005    -3.4673438995736268E-008
   6.3666666666666665E-005    -4.5636500977274989E-008
   6.3866666666666656E-005    -5.4211249542820705E-008
   6.4066666666666661E-005    -5.9307620913097244E-008
   6.4266666666666666E-005    -5.9980061781363801E-008
   6.4466666666666657E-005    -5.5529012029769116E-008
   6.4666666666666662E-005    -4.5595902667508962E-008
   6.4866666666666667E-005    -3.0242631806222185E-008
   6.5066666666666658E-005    -1.0006540074645087E-008
   6.5266666666666663E-005     1.4077381413329903E-008
   6.5466666666666654E-005     4.0493377402171146E-008
   6.5666666666666659E-005     6.7305599598062391E-008
   6.5866666666666664E-005     9.2263461511987346E-008
   6.6066666666666655E-005     1.1294913428378809E-007
   6.6266666666666660E-005     1.2696092237985677E-007
   6.6466666666666665E-005     1.3212164864590425E-007
   6.6666666666666656E-005     1.2669803340700198E-007
   6.6866666666666661E-005     1.0961353800263022E-007
   6.7066666666666666E-005     8.0635221016920001E-008
   6.7266666666666657E-005     4.0515432980787544E-008
   6.7466666666666662E-005    -8.9316679039133007E-009
   6.7666666666666667E-005    -6.4833342277775964E-008
   6.7866666666666658E-005    -1.2335337303695521E-007
   6.8066666666666663E-005    -1.7988332009539099E-007
   6.8266666666666655E-005    -2.2932710980024713E-007
   6.8466666666666659E-005    -2.6646765489319989E-007
   6.8666666666666664E-005    -2.8639508386375600E-007
   6.8866666666666656E-005    -2.8496850190686625E-007
   6.9066666666666660E-005    -2.5927639865350989E-007
   6.9266666666666665E-005    -2.0805553421423504E-007
   6.9466666666666657E-005    -1.3202720021268241E-007
   6.9666666666666661E-005    -3.4110593211490905E-008
   6.9866666666666666E-005     8.0521407471621226E-008
   7.0066666666666658E-005     2.0457104110888746E-007
   7.0266666666666662E-005     3.2894083423039051E-007
   7.0466666666666654E-005     4.4325654794578935E-007
   7.0666666666666659E-005     5.3656800307390093E-007
   7.0866666666666664E-005     5.9819274662128479E-007
   7.1066666666666655E-005     6.1865022871017421E-007
   7.1266666666666660E-005     5.9061974019698867E-007
   7.1466666666666665E-005     5.0984278449112215E-007
   7.1666666666666656E-005     3.7588886662603541E-007
   7.1866666666666661E-005     1.9269941255714001E-007
   7.2066666666666666E-005    -3.1163241075116338E-008
   7.2266666666666657E-005    -2.8262284111284851E-007
   7.2466666666666662E-005    -5.4458764533788823E-007
   7.2666666666666667E-005    -7.9685161929076109E-007
   7.2866666666666658E-005    -1.0173724110648344E-006
   7.3066666666666663E-005    -1.1838683988856834E-006
   7.3266666666666654E-005    -1.2756398471248022E-006
   7.3466666666666659E-005    -1.2754912532239672E-006
   7.3666666666666664E-005    -1.1716029567710402E-006
   7.3866666666666655E-005    -9.5919225415680033E-007
   7.4066666666666660E-005    -6.4179244949705288E-007
   7.4266666666666665E-005    -2.3199954142363420E-007
   7.4466666666666656E-005     2.4844560632327169E-007
   7.4666666666666661E-005     7.6932610678649744E-007
   7.4866666666666666E-005     1.2934049241796390E-006
   7.5066666666666657E-005     1.7786403187995200E-006
   7.5266666666666662E-005     2.1810659400226881E-006
   7.5466666666666653E-005     2.4581718064012760E-006