  -3.3333333333333335E-005     0.0000000000000000     
  -3.3133333333333337E-005     0.0000000000000000     
  -3.2933333333333332E-005     0.0000000000000000     
  -3.2733333333333334E-005     0.0000000000000000     
  -3.2533333333333336E-005     0.0000000000000000     
  -3.2333333333333338E-005     0.0000000000000000     
  -3.2133333333333333E-005     0.0000000000000000     
  -3.1933333333333335E-005     0.0000000000000000     
  -3.1733333333333337E-005     0.0000000000000000     
  -3.1533333333333332E-005     0.0000000000000000     
  -3.1333333333333334E-005     0.0000000000000000     
  -3.1133333333333336E-005     0.0000000000000000     
  -3.0933333333333338E-005     0.0000000000000000     
  -3.0733333333333333E-005     0.0000000000000000     
  -3.0533333333333335E-005     0.0000000000000000     
  -3.0333333333333337E-005     0.0000000000000000     
  -3.0133333333333335E-005     0.0000000000000000     
  -2.9933333333333334E-005     0.0000000000000000     
  -2.9733333333333336E-005     0.0000000000000000     
  -2.9533333333333334E-005     0.0000000000000000     
  -2.9333333333333336E-005     0.0000000000000000     
  -2.9133333333333334E-005     0.0000000000000000     
  -2.8933333333333336E-005     0.0000000000000000     
  -2.8733333333333335E-005     0.0000000000000000     
  -2.8533333333333333E-005     0.0000000000000000     
  -2.8333333333333335E-005     0.0000000000000000     
  -2.8133333333333337E-005     0.0000000000000000     
  -2.7933333333333336E-005     0.0000000000000000     
  -2.7733333333333334E-005     0.0000000000000000     
  -2.7533333333333336E-005     0.0000000000000000     
  -2.7333333333333335E-005     0.0000000000000000     
  -2.7133333333333333E-005     0.0000000000000000     
  -2.6933333333333335E-005     0.0000000000000000     
  -2.6733333333333337E-005     0.0000000000000000     
  -2.6533333333333336E-005     0.0000000000000000     
  -2.6333333333333334E-005     0.0000000000000000     
  -2.6133333333333336E-005     0.0000000000000000     
  -2.5933333333333335E-005     0.0000000000000000     
  -2.5733333333333333E-005     0.0000000000000000     
  -2.5533333333333335E-005     0.0000000000000000     
  -2.5333333333333337E-005     0.0000000000000000     
  -2.5133333333333336E-005     0.0000000000000000     
  -2.4933333333333334E-005     0.0000000000000000     
  -2.4733333333333336E-005     0.0000000000000000     
  -2.4533333333333334E-005     0.0000000000000000     
  -2.4333333333333333E-005     0.0000000000000000     
  -2.4133333333333335E-005     0.0000000000000000     
  -2.3933333333333337E-005     0.0000000000000000     
  -2.3733333333333335E-005     0.0000000000000000     
  -2.3533333333333334E-005     0.0000000000000000     
  -2.3333333333333336E-005     0.0000000000000000     
  -2.3133333333333338E-005     0.0000000000000000     
  -2.2933333333333336E-005     0.0000000000000000     
  -2.2733333333333335E-005     0.0000000000000000     
  -2.2533333333333337E-005     0.0000000000000000     
  -2.2333333333333335E-005     0.0000000000000000     
  -2.2133333333333334E-005     0.0000000000000000     
  -2.1933333333333336E-005     0.0000000000000000     
  -2.1733333333333338E-005     0.0000000000000000     
  -2.1533333333333336E-005     0.0000000000000000     
  -2.1333333333333335E-005     0.0000000000000000     
  -2.1133333333333337E-005     0.0000000000000000     
  -2.0933333333333335E-005     0.0000000000000000     
  -2.0733333333333334E-005     0.0000000000000000     
  -2.0533333333333336E-005     0.0000000000000000     
  -2.0333333333333337E-005     0.0000000000000000     
  -2.0133333333333336E-005     0.0000000000000000     
  -1.9933333333333334E-005     0.0000000000000000     
  -1.9733333333333336E-005     3.2240357121843196E-041
  -1.9533333333333335E-005     1.2811657609844286E-040
  -1.9333333333333333E-005     4.2458185168973040E-040
  -1.9133333333333335E-005     9.7485306388889823E-040
  -1.8933333333333337E-005     2.1619708941191290E-039
  -1.8733333333333336E-005     3.7980133321186002E-039
  -1.8533333333333334E-005     4.6901943209578574E-039
  -1.8333333333333336E-005    -2.4972627728300260E-040
  -1.8133333333333335E-005    -1.7182446679639231E-038
  -1.7933333333333337E-005    -5.9449698342821889E-038
  -1.7733333333333335E-005    -1.1627647760306272E-037
  -1.7533333333333337E-005    -1.9186609086337325E-037
  -1.7333333333333336E-005    -2.5560540535081890E-037
  -1.7133333333333334E-005    -2.2450484395614264E-037
  -1.6933333333333336E-005     8.3040348981374293E-039
  -1.6733333333333335E-005     6.5035642702868449E-037
  -1.6533333333333337E-005     1.9110820719061698E-036
  -1.6333333333333335E-005     3.8796264416403016E-036
  -1.6133333333333337E-005     6.2697108956768173E-036
  -1.5933333333333336E-005     8.0418032759540048E-036
  -1.5733333333333334E-005     6.9862172241398365E-036
  -1.5533333333333336E-005    -5.0829895908926517E-037
  -1.5333333333333334E-005    -1.9079849415248909E-035
  -1.5133333333333336E-005    -5.2813127725769332E-035
  -1.4933333333333335E-005    -1.0182122390486805E-034
  -1.4733333333333337E-005    -1.5667949330218659E-034
  -1.4533333333333335E-005    -1.9133628101710355E-034
  -1.4333333333333337E-005    -1.5686118367988325E-034
  -1.4133333333333336E-005     1.9130123118262482E-035
  -1.3933333333333334E-005     4.1988830971950657E-034
  -1.3733333333333336E-005     1.1048273207717253E-033
  -1.3533333333333335E-005     2.0456967564562362E-033
  -1.3333333333333337E-005     3.0348150599665071E-033
  -1.3133333333333335E-005     3.5835239750518264E-033
  -1.2933333333333337E-005     2.8552334554629513E-033
  -1.2733333333333336E-005    -2.9113975519782466E-034
  -1.2533333333333338E-005    -7.0461511887101089E-033
  -1.2333333333333336E-005    -1.8082499843728052E-032
  -1.2133333333333335E-005    -3.2628138154872248E-032
  -1.1933333333333337E-005    -4.7266582163803618E-032
  -1.1733333333333335E-005    -5.4780157591902383E-032
  -1.1533333333333337E-005    -4.3657125692133017E-032
  -1.1333333333333336E-005     8.1040018140840729E-034
  -1.1133333333333337E-005     9.2753072893733081E-032
  -1.0933333333333336E-005     2.3840076985572833E-031
  -1.0733333333333334E-005     4.2516349406508981E-031
  -1.0533333333333336E-005     6.0871235420744982E-031
  -1.0333333333333335E-005     7.0209983854638171E-031
  -1.0133333333333337E-005     5.7381292159102111E-031
  -9.9333333333333354E-006     6.3997010917079260E-032
  -9.7333333333333373E-006    -9.7159614215275824E-031
  -9.5333333333333358E-006    -2.5840155869567520E-030
  -9.3333333333333343E-006    -4.6233709059122799E-030
  -9.1333333333333362E-006    -6.6205173664390234E-030
  -8.9333333333333348E-006    -7.6992009393693979E-030
  -8.7333333333333367E-006    -6.5819012459623720E-030
  -8.5333333333333352E-006    -1.7668871028623451E-030
  -8.3333333333333371E-006     8.0521178133227515E-030
  -8.1333333333333356E-006     2.3292480616473023E-029
  -7.9333333333333376E-006     4.2569591578144024E-029
  -7.7333333333333361E-006     6.1749176586748122E-029
  -7.5333333333333346E-006     7.3310106380501701E-029
  -7.3333333333333365E-006     6.6510934205117308E-029
  -7.1333333333333351E-006     2.8922860296692085E-029
  -6.9333333333333370E-006    -5.0202327152640448E-029
  -6.7333333333333355E-006    -1.7460290018986233E-028
  -6.5333333333333374E-006    -3.3423007916866069E-028
  -6.3333333333333359E-006    -4.9844908847697401E-028
  -6.1333333333333379E-006    -6.1168381068960772E-028
  -5.9333333333333364E-006    -5.9484354759864354E-028
  -5.7333333333333349E-006    -3.5614924054703560E-028
  -5.5333333333333368E-006     1.8583930822800074E-028
  -5.3333333333333354E-006     1.0665581460006906E-027
  -5.1333333333333373E-006     2.2307895652891914E-027
  -4.9333333333333358E-006     3.4882129072868741E-027
  -4.7333333333333377E-006     4.4843418002529819E-027
  -4.5333333333333362E-006     4.7067707887246769E-027
  -4.3333333333333348E-006     3.5476827637556888E-027
  -4.1333333333333367E-006     4.3844282211517191E-028
  -3.9333333333333352E-006    -4.9415574608717439E-027
  -3.7333333333333371E-006    -1.2402120156131818E-026
  -3.5333333333333356E-006    -2.0975444030730982E-026
  -3.3333333333333376E-006    -2.8726501712709817E-026
  -3.1333333333333361E-006    -3.2746013562864966E-026
  -2.9333333333333346E-006    -2.9436918879485313E-026
  -2.7333333333333365E-006    -1.5179916437102474E-026
  -2.5333333333333384E-006     1.2601467513238937E-026
  -2.3333333333333336E-006     5.4063160684081035E-026
  -2.1333333333333355E-006     1.0547694995968487E-025
  -1.9333333333333374E-006     1.5805622807938387E-025
  -1.7333333333333393E-006     1.9756505508414938E-025
  -1.5333333333333345E-006     2.0524436378516106E-025
  -1.3333333333333364E-006     1.6049993885272105E-025
  -1.1333333333333383E-006     4.5540186497675369E-026
  -9.3333333333333343E-007    -1.4828527920877309E-025
  -7.3333333333333535E-007    -4.1327363186170046E-025
  -5.3333333333333726E-007    -7.1874646044833613E-025
  -3.3333333333333918E-007    -1.0070390768050804E-024
  -1.3333333333333432E-007    -1.1943994888530062E-024
   6.6666666666663770E-008    -1.1789430192583247E-024
   2.6666666666666185E-007    -8.5702780758946124E-025
   4.6666666666666672E-007    -1.4796575894947680E-025
   6.6666666666666480E-007     9.7505301056441073E-025
   8.6666666666666289E-007     2.4523513186192180E-024
   1.0666666666666610E-006     4.1103448191585907E-024
   1.2666666666666658E-006     5.6479108070476790E-024
   1.4666666666666639E-006     6.6456539404444475E-024
   1.6666666666666620E-006     6.6058286235060336E-024
   1.8666666666666669E-006     5.0273441405837040E-024
   2.0666666666666649E-006     1.5144743613621292E-024
   2.2666666666666630E-006    -4.0894527579620440E-024
   2.4666666666666611E-006    -1.1560638447454933E-023
   2.6666666666666660E-006    -2.0171209356473058E-023
   2.8666666666666641E-006    -2.8615178635776329E-023
   3.0666666666666622E-006    -3.5018790903192252E-023
   3.2666666666666602E-006    -3.7067600633898604E-023
   3.4666666666666651E-006    -3.2274659194338201E-023
   3.6666666666666632E-006    -1.8397130938629428E-023
   3.8666666666666613E-006     6.0126329255660550E-024
   4.0666666666666661E-006     4.0966258507309159E-023
   4.2666666666666642E-006     8.4386410210433288E-023
   4.4666666666666623E-006     1.3155601948028249E-022
   4.6666666666666604E-006     1.7481397076186767E-022
   4.8666666666666652E-006     2.0366611508901167E-022
   5.0666666666666633E-006     2.0548315655290555E-022
   5.2666666666666614E-006     1.6693281895031073E-022
   5.4666666666666663E-006     7.6229946269843952E-023
   5.6666666666666644E-006    -7.3824256752397597E-023
   5.8666666666666624E-006    -2.8221079639621212E-022
   6.0666666666666605E-006    -5.3588589842394694E-022
   6.2666666666666654E-006    -8.0646525644718506E-022
   6.4666666666666635E-006    -1.0483174021342306E-021
   6.6666666666666616E-006    -1.1991752814771327E-021
   6.8666666666666664E-006    -1.1844373611842484E-021
   7.0666666666666645E-006    -9.2614824924910759E-022
   7.2666666666666626E-006    -3.5717613885998149E-022
   7.4666666666666607E-006     5.5973352617510006E-022
   7.6666666666666655E-006     1.8095992157983649E-021
   7.8666666666666636E-006     3.3025999259146275E-021
   8.0666666666666617E-006     4.8559368886475507E-021
   8.2666666666666598E-006     6.1862188324492749E-021
   8.4666666666666647E-006     6.9192143333554202E-021
   8.6666666666666627E-006     6.6233368584636271E-021
   8.8666666666666608E-006     4.8712124232201866E-021
   9.0666666666666657E-006     1.3296669605095786E-021
   9.2666666666666638E-006    -4.1276137849740867E-021
   9.4666666666666619E-006    -1.1297988711499852E-020
   9.6666666666666599E-006    -1.9539819190015291E-020
   9.8666666666666648E-006    -2.7703318708448738E-020
   1.0066666666666663E-005    -3.4135201263581659E-020
   1.0266666666666661E-005    -3.6789162283534086E-020
   1.0466666666666666E-005    -3.3465853737767243E-020
   1.0666666666666664E-005    -2.2188858659298614E-020
   1.0866666666666662E-005    -1.6970810259759043E-021
   1.1066666666666660E-005     2.7997980547617681E-020
   1.1266666666666665E-005     6.5077248702582923E-020
   1.1466666666666663E-005     1.0551940057788724E-019
   1.1666666666666661E-005     1.4298354347668611E-019
   1.1866666666666666E-005     1.6910361876498206E-019
   1.2066666666666664E-005     1.7429869505555122E-019
   1.2266666666666662E-005     1.4913837851610307E-019
   1.2466666666666660E-005     8.6207813455090144E-020
   1.2666666666666665E-005    -1.7704533106119859E-020
   1.2866666666666663E-005    -1.5940071539944916E-019
   1.3066666666666661E-005    -3.2746570504355402E-019
   1.3266666666666666E-005    -5.0134814378089882E-019
   1.3466666666666664E-005    -6.5181313682289587E-019
   1.3666666666666662E-005    -7.4316087792115391E-019
   1.3866666666666660E-005    -7.3740024686897900E-019
   1.4066666666666665E-005    -6.0026622422296738E-019
   1.4266666666666663E-005    -3.0859320983444430E-019
   1.4466666666666661E-005     1.4183683165153531E-019
   1.4666666666666666E-005     7.2921870883289657E-019
   1.4866666666666664E-005     1.4008909064613310E-018
   1.5066666666666662E-005     2.0722666849578419E-018
   1.5266666666666661E-005     2.6308276262168138E-018
   1.5466666666666665E-005     2.9460111850574241E-018
   1.5666666666666663E-005     2.8850209461247354E-018
   1.5866666666666662E-005     2.3337113682959663E-018
   1.6066666666666660E-005     1.2205934152673566E-018
   1.6266666666666665E-005    -4.5894319599990800E-019
   1.6466666666666663E-005    -2.6218136803238297E-018
   1.6666666666666661E-005    -5.0838742317389827E-018
   1.6866666666666666E-005    -7.5579757247392194E-018
   1.7066666666666664E-005    -9.6666169612667878E-018
   1.7266666666666662E-005    -1.0971312562098730E-017
   1.7466666666666660E-005    -1.1018957710104222E-017
   1.7666666666666665E-005    -9.4033991604326014E-018
   1.7866666666666663E-005    -5.8382088696315839E-018
   1.8066666666666661E-005    -2.3398280815463720E-019
   1.8266666666666666E-005     7.2283741049554023E-018
   1.8466666666666664E-005     1.6039272298868319E-017
   1.8666666666666662E-005     2.5329115602952887E-017
   1.8866666666666660E-005     3.3876801691074644E-017
   1.9066666666666665E-005     4.0169968716665944E-017
   1.9266666666666663E-005     4.2526975694626367E-017
   1.9466666666666661E-005     3.9285350241478106E-017
   1.9666666666666666E-005     2.9054051248435994E-017
   1.9866666666666664E-005     1.1016620203051265E-017
   2.0066666666666662E-005    -1.4741926294940930E-017
   2.0266666666666660E-005    -4.6925782540172520E-017
   2.0466666666666665E-005    -8.2793729365628805E-017
   2.0666666666666663E-005    -1.1806714724998383E-016
   2.0866666666666661E-005    -1.4705359341868102E-016
   2.1066666666666659E-005    -1.6305007717669368E-016
   2.1266666666666664E-005    -1.5906821148964289E-016
   2.1466666666666662E-005    -1.2888177386924393E-016
   2.1666666666666660E-005    -6.8335373817471260E-017
   2.1866666666666665E-005     2.3214176255178550E-017
   2.2066666666666663E-005     1.4153358718773168E-016
   2.2266666666666661E-005     2.7650039586562061E-016
   2.2466666666666659E-005     4.1175486340400871E-016
   2.2666666666666664E-005     5.2532440852199693E-016
   2.2866666666666662E-005     5.9145988731959971E-016
   2.3066666666666660E-005     5.8378044855587820E-016
   2.3266666666666665E-005     4.7961278377257287E-016
   2.3466666666666663E-005     2.6515011586477650E-016
   2.3666666666666661E-005    -5.9233579843686348E-017
   2.3866666666666660E-005    -4.7443314373037543E-016
   2.4066666666666664E-005    -9.3990604126665329E-016
   2.4266666666666662E-005    -1.3939073825307986E-015
   2.4466666666666661E-005    -1.7575733011265992E-015
   2.4666666666666665E-005    -1.9433238776214300E-015
   2.4866666666666663E-005    -1.8674190816879604E-015
   2.5066666666666662E-005    -1.4656596228568893E-015
   2.5266666666666660E-005    -7.1035068676332902E-016
   2.5466666666666665E-005     3.7416514573600684E-016
   2.5666666666666663E-005     1.7006393746642885E-015
   2.5866666666666661E-005     3.1160254445033950E-015
   2.6066666666666666E-005     4.4093830058416453E-015
   2.6266666666666664E-005     5.3322207332967258E-015
   2.6466666666666662E-005     5.6311096294073392E-015
   2.6666666666666660E-005     5.0901236263017168E-015
   2.6866666666666665E-005     3.5781886274986878E-015
   2.7066666666666663E-005     1.0942398598220711E-015
   2.7266666666666661E-005    -2.1984583309548082E-015
   2.7466666666666666E-005    -5.9577631500710506E-015
   2.7666666666666664E-005    -9.6755828492858044E-015
   2.7866666666666662E-005    -1.2723041330660019E-014
   2.8066666666666667E-005    -1.4428085663883899E-014
   2.8266666666666658E-005    -1.4179919489833279E-014
   2.8466666666666663E-005    -1.1548657674799527E-014
   2.8666666666666668E-005    -6.4027754764123445E-015
   2.8866666666666659E-005     9.9658807382860648E-016
   2.9066666666666664E-005     9.9465809894093986E-015
   2.9266666666666669E-005     1.9318057737510171E-014
   2.9466666666666660E-005     2.7647903509609452E-014
   2.9666666666666665E-005     3.3310042130045390E-014
   2.9866666666666656E-005     3.4753681651564717E-014
   3.0066666666666661E-005     3.0782966664857062E-014
   3.0266666666666666E-005     2.0839247067759649E-014
   3.0466666666666657E-005     5.2383470516182039E-015
   3.0666666666666662E-005    -1.4687805200929331E-014
   3.0866666666666667E-005    -3.6589929502816134E-014
   3.1066666666666658E-005    -5.7271240419390917E-014
   3.1266666666666663E-005    -7.3036227354191467E-014
   3.1466666666666668E-005    -8.0197545697107782E-014
   3.1666666666666659E-005    -7.5689461504716419E-014
   3.1866666666666664E-005    -5.7707347792608808E-014
   3.2066666666666656E-005    -2.6272872334348873E-014
   3.2266666666666660E-005     1.6384383572103879E-014
   3.2466666666666665E-005     6.5728133890864321E-014
   3.2666666666666657E-005     1.1517261332187139E-013
   3.2866666666666661E-005     1.5672424114358114E-013
   3.3066666666666666E-005     1.8197952269209241E-013
   3.3266666666666658E-005     1.8338759194520279E-013
   3.3466666666666662E-005     1.5562675539651600E-013
   3.3666666666666667E-005     9.6896906919194571E-014
   3.3866666666666659E-005     9.9085516274188118E-015
   3.4066666666666664E-005    -9.7643863911387052E-014
   3.4266666666666668E-005    -2.1329396691052900E-013
   3.4466666666666660E-005    -3.2079321306514816E-013
   3.4666666666666665E-005    -4.0186762462432482E-013
   3.4866666666666656E-005    -4.3861107217693385E-013
   3.5066666666666661E-005    -4.1626603068701265E-013
   3.5266666666666666E-005    -3.2604174605839314E-013
   3.5466666666666657E-005    -1.6755527011243547E-013
   3.5666666666666662E-005     4.9529635844549197E-014
   3.5866666666666667E-005     3.0504653698762767E-013
   3.6066666666666658E-005     5.6931895713337260E-013
   3.6266666666666663E-005     8.0570359974359254E-013
   3.6466666666666668E-005     9.7457928086105736E-013
   3.6666666666666659E-005     1.0384551066554370E-012
   3.6866666666666664E-005     9.6766119070359480E-013
   3.7066666666666669E-005     7.4592331103428302E-013
   3.7266666666666660E-005     3.7502760478818112E-013
   3.7466666666666665E-005    -1.2221496801580752E-013
   3.7666666666666656E-005    -7.0138321175639434E-013
   3.7866666666666661E-005    -1.2987076270884817E-012
   3.8066666666666666E-005    -1.8363296831719236E-012
   3.8266666666666657E-005    -2.2303413149980123E-012
   3.8466666666666662E-005    -2.4009872945576927E-012
   3.8666666666666667E-005    -2.2840262209964525E-012
   3.8866666666666658E-005    -1.8419498385879591E-012
   3.9066666666666663E-005    -1.0735701198274550E-012
   3.9266666666666668E-005    -2.0457009290217305E-014
   3.9466666666666659E-005     1.2311223489742769E-012
   3.9666666666666664E-005     2.5537541032561182E-012
   3.9866666666666655E-005     3.7883707972023819E-012
   4.0066666666666660E-005     4.7594544119796949E-012
   4.0266666666666665E-005     5.2949563758278634E-012
   4.0466666666666656E-005     5.2491589866055391E-012
   4.0666666666666661E-005     4.5260512519963564E-012
   4.0866666666666666E-005     3.1002878274589057E-012
   4.1066666666666657E-005     1.0326192742122410E-012
   4.1266666666666662E-005    -1.5231583364509859E-012
   4.1466666666666667E-005    -4.3241073264014002E-012
   4.1666666666666658E-005    -7.0542963790030956E-012
   4.1866666666666663E-005    -9.3532326988160207E-012
   4.2066666666666668E-005    -1.0855038365409863E-011
   4.2266666666666660E-005    -1.1235109488682210E-011
   4.2466666666666664E-005    -1.0259472123446419E-011
   4.2666666666666656E-005    -7.8307707673625802E-012
   4.2866666666666661E-005    -4.0241953562159064E-012
   4.3066666666666665E-005     8.9320500548090836E-013
   4.3266666666666657E-005     6.4653400425771344E-012
   4.3466666666666662E-005     1.2075589380856396E-011
   4.3666666666666666E-005     1.7001708986024593E-011
   4.3866666666666658E-005     2.0494336025038312E-011
   4.4066666666666663E-005     2.1872663727423177E-011
   4.4266666666666667E-005     2.0627247140119217E-011
   4.4466666666666659E-005     1.6517173637934782E-011
   4.4666666666666664E-005     9.6473184289020364E-012
   4.4866666666666655E-005     5.1158097177358433E-013
   4.5066666666666660E-005    -1.0009774456945141E-011
   4.5266666666666665E-005    -2.0706315276172211E-011
   4.5466666666666656E-005    -3.0148734532164553E-011
   4.5666666666666661E-005    -3.6849382756533003E-011
   4.5866666666666666E-005    -3.9458353187712637E-011
   4.6066666666666657E-005    -3.6974085167443084E-011
   4.6266666666666662E-005    -2.8941703784237260E-011
   4.6466666666666667E-005    -1.5609493335242986E-011
   4.6666666666666658E-005     1.9857172033427214E-012
   4.6866666666666663E-005     2.2028152619463411E-011
   4.7066666666666668E-005     4.2043148712141140E-011
   4.7266666666666659E-005     5.9130134806816647E-011
   4.7466666666666664E-005     7.0295923571750688E-011
   4.7666666666666655E-005     7.2859889270252832E-011
   4.7866666666666660E-005     6.4887583949462595E-011
   4.8066666666666665E-005     4.5598321469991160E-011
   4.8266666666666656E-005     1.5686180430474217E-011
   4.8466666666666661E-005    -2.2504742823821623E-011
   4.8666666666666666E-005    -6.5000277296708658E-011
   4.8866666666666657E-005    -1.0644323977161257E-010
   4.9066666666666662E-005    -1.4057476828982147E-010
   4.9266666666666667E-005    -1.6092676448609372E-010
   4.9466666666666658E-005    -1.6167103658229981E-010
   4.9666666666666663E-005    -1.3854002463094342E-010
   4.9866666666666655E-005    -8.9711014409952595E-011
   5.0066666666666659E-005    -1.6530655750123275E-011
   5.0266666666666664E-005     7.6042727782147046E-011
   5.0466666666666656E-005     1.7938798492782302E-010
   5.0666666666666660E-005     2.8163789534570060E-010
   5.0866666666666665E-005     3.6859570359253476E-010
   5.1066666666666657E-005     4.2512563641069088E-010
   5.1266666666666661E-005     4.3692819194754791E-010
   5.1466666666666666E-005     3.9254755137326033E-010
   5.1666666666666658E-005     2.8540362966046025E-010
   5.1866666666666662E-005     1.1560120332667471E-010
   5.2066666666666667E-005    -1.0874751731057679E-010
   5.2266666666666659E-005    -3.7093774590251236E-010
   5.2466666666666664E-005    -6.4603204392573858E-010
   5.2666666666666655E-005    -9.0229563884385089E-010
   5.2866666666666660E-005    -1.1037326705154787E-009
   5.3066666666666665E-005    -1.2136237490596331E-009
   5.3266666666666656E-005    -1.1988280014153200E-009
   5.3466666666666661E-005    -1.0344803394545077E-009
   5.3666666666666666E-005    -7.0860377001981703E-010
   5.3866666666666657E-005    -2.2607605910989838E-010
   5.4066666666666662E-005     3.8863055718816530E-010
   5.4266666666666667E-005     1.0904873471243320E-009
   5.4466666666666658E-005     1.8151634325745367E-009
   5.4666666666666663E-005     2.4827625129133980E-009
   5.4866666666666668E-005     3.0040674216051825E-009
   5.5066666666666659E-005     3.2890398676740054E-009
   5.5266666666666664E-005     3.2570109768994557E-009
   5.5466666666666655E-005     2.8477095730285033E-009
   5.5666666666666660E-005     2.0320247900437548E-009
   5.5866666666666665E-005     8.2122434051371523E-010
   5.6066666666666656E-005    -7.2668905266376994E-010
   5.6266666666666661E-005    -2.5047258885874857E-009
   5.6466666666666666E-005    -4.3597524858076763E-009
   5.6666666666666657E-005    -6.1010248637988516E-009
   5.6866666666666662E-005    -7.5144685467676561E-009
   5.7066666666666667E-005    -8.3821300891949387E-009
   5.7266666666666658E-005    -8.5055447027498154E-009
   5.7466666666666663E-005    -7.7311113888615786E-009
   5.7666666666666654E-005    -5.9750133009004869E-009
   5.7866666666666659E-005    -3.2448614191317950E-009
   5.8066666666666664E-005     3.4488688762794672E-010
   5.8266666666666655E-005     4.5664838936289852E-009
   5.8466666666666660E-005     9.0836472118270670E-009
   5.8666666666666665E-005     1.3468873175258476E-008
   5.8866666666666656E-005     1.7233538187407111E-008
   5.9066666666666661E-005     1.9869635277660770E-008
   5.9266666666666666E-005     2.0900584522198756E-008
   5.9466666666666657E-005     1.9937132078494898E-008
   5.9666666666666662E-005     1.6733188625901902E-008
   5.9866666666666667E-005     1.1235648749531871E-008
   6.0066666666666659E-005     3.6219526190826587E-009
   6.0266666666666663E-005    -5.6805497529600899E-009
   6.0466666666666655E-005    -1.5998316477492394E-008
   6.0666666666666660E-005    -2.6441649535573172E-008
   6.0866666666666664E-005    -3.5961987574528155E-008
   6.1066666666666656E-005    -4.3434714681892962E-008
   6.1266666666666661E-005    -4.7762774243641778E-008
   6.1466666666666665E-005    -4.7993560188193494E-008
   6.1666666666666657E-005    -4.3439017831986973E-008
   6.1866666666666662E-005    -3.3787113122076648E-008
   6.2066666666666666E-005    -1.9191918797837543E-008
   6.2266666666666658E-005    -3.2993577864647446E-010
   6.2466666666666663E-005     2.1588083162381395E-008
   6.2666666666666668E-005     4.4857636401459173E-008
   6.2866666666666659E-005     6.7376816733682869E-008
   6.3066666666666664E-005     8.6797010328381468E-008
   6.3266666666666655E-005     1.0072059053705191E-007
   6.3466666666666660E-005     1.0693262618118329E-007
   6.3666666666666665E-005     1.0364819739428593E-007
   6.3866666666666656E-005     8.9752855246965915E-008
   6.4066666666666661E-005     6.5011228838634224E-008
   6.4266666666666666E-005     3.0218429801142417E-008
   6.4466666666666657E-005    -1.2728835350134805E-008
   6.4666666666666662E-005    -6.0859949029570533E-008
   6.4866666666666667E-005    -1.1026778494564529E-007
   6.5066666666666658E-005    -1.5635773921797404E-007
   6.5266666666666663E-005    -1.9419916167327346E-007
   6.5466666666666654E-005    -2.1895875848519383E-007
   6.5666666666666659E-005    -2.2638461012980321E-007
   6.5866666666666664E-005    -2.1330004779512920E-007
   6.6066666666666655E-005    -1.7806041853685576E-007
   6.6266666666666660E-005    -1.2092291516470168E-007
   6.6466666666666665E-005    -4.4281690087898766E-008
   6.6666666666666656E-005     4.7272746516008416E-008
   6.6866666666666661E-005     1.4709873160251559E-007
   6.7066666666666666E-005     2.4686640786786618E-007
   6.7266666666666657E-005     3.3713125008914665E-007
   6.7466666666666662E-005     4.0809034365448396E-007
   6.7666666666666667E-005     4.5047141561616520E-007
   6.7866666666666658E-005     4.5648597861009057E-007
   6.8066666666666663E-005     4.2076265538536178E-007
   6.8266666666666655E-005     3.4116842930469792E-007
   6.8466666666666659E-005     2.1942474628371845E-007
   6.8666666666666664E-005     6.1433921292787629E-008
   6.8866666666666656E-005    -1.2275138026383873E-007
   6.9066666666666660E-005    -3.1935610840792761E-007
   6.9266666666666665E-005    -5.1171605933997873E-007
   6.9466666666666657E-005    -6.8148613992068762E-007
   6.9666666666666661E-005    -8.1015365704368426E-007
   6.9866666666666666E-005    -8.8074960045457942E-007
   7.0066666666666658E-005    -8.7961934903298601E-007
   7.0266666666666662E-005    -7.9809275795450768E-007
   7.0466666666666654E-005    -6.3388423680117667E-007
   7.0666666666666659E-005    -3.9205982428526532E-007
   7.0866666666666664E-005    -8.5431197343595255E-008
   7.1066666666666655E-005     2.6572661315220757E-007
   7.1266666666666660E-005     6.3468347727500992E-007
   7.1466666666666665E-005     9.8997660984431356E-007
   7.1666666666666656E-005     1.2977660862767668E-006
   7.1866666666666661E-005     1.5246754773275723E-006
   7.2066666666666666E-005     1.6409062708087220E-006
   7.2266666666666657E-005     1.6233686001440123E-006
   7.2466666666666662E-005     1.4585386803701206E-006
   7.2666666666666667E-005     1.1447499381533091E-006
   7.2866666666666658E-005     6.9364396341093998E-007
   7.3066666666666663E-005     1.3055836710780806E-007
   7.3266666666666654E-005    -5.0629877325864672E-007
   7.3466666666666659E-005    -1.1679397553676654E-006
   7.3666666666666664E-005    -1.7978947476520369E-006
   7.3866666666666655E-005    -2.3365392855355905E-006
   7.4066666666666660E-005    -2.7261619054784847E-006
   7.4266666666666665E-005    -2.9163821365828185E-006
   7.4466666666666656E-005    -2.8694608211371108E-006
   7.4666666666666661E-005    -2.5650025810146468E-006
   7.4866666666666666E-005    -2.0035596292523630E-006
   7.5066666666666657E-005    -1.2086972699179077E-006
   7.5266666666666662E-005    -2.2717787659947986E-007
   7.5466666666666653E-005     8.7293993132464173E-007