  -3.3333333333333335E-005     0.0000000000000000     
  -3.3133333333333337E-005     0.0000000000000000     
  -3.2933333333333332E-005     0.0000000000000000     
  -3.2733333333333334E-005     0.0000000000000000     
  -3.2533333333333336E-005     0.0000000000000000     
  -3.2333333333333338E-005     0.0000000000000000     
  -3.2133333333333333E-005     0.0000000000000000     
  -3.1933333333333335E-005     0.0000000000000000     
  -3.1733333333333337E-005     0.0000000000000000     
  -3.1533333333333332E-005     0.0000000000000000     
  -3.1333333333333334E-005     0.0000000000000000     
  -3.1133333333333336E-005     1.3897060488959877E-028
  -3.0933333333333338E-005    -2.3688022745751793E-027
  -3.0733333333333333E-005    -8.4086215224724565E-026
  -3.0533333333333335E-005    -1.0719042556983865E-024
  -3.0333333333333337E-005    -8.7301853603386651E-024
  -3.0133333333333335E-005    -5.2741540917773278E-023
  -2.9933333333333334E-005    -2.5219710224322934E-022
  -2.9733333333333336E-005    -9.8439319980447835E-022
  -2.9533333333333334E-005    -3.1657180764136480E-021
  -2.9333333333333336E-005    -8.2663116566026529E-021
  -2.9133333333333334E-005    -1.6401001491618540E-020
  -2.8933333333333336E-005    -1.8101555885557365E-020
  -2.8733333333333335E-005     2.8025824797300130E-020
  -2.8533333333333333E-005     2.3830767216338495E-019
  -2.8333333333333335E-005     8.5446253598171906E-019
  -2.8133333333333337E-005     2.2278025437015014E-018
  -2.7933333333333336E-005     4.5472182018194511E-018
  -2.7733333333333334E-005     6.9852183023786673E-018
  -2.7533333333333336E-005     5.9401071825442925E-018
  -2.7333333333333335E-005    -7.4659703018662869E-018
  -2.7133333333333333E-005    -4.9065993405611329E-017
  -2.6933333333333335E-005    -1.3840137401673097E-016
  -2.6733333333333337E-005    -2.8356645570138470E-016
  -2.6533333333333336E-005    -4.4663954585553985E-016
  -2.6333333333333334E-005    -4.8905747820303556E-016
  -2.6133333333333336E-005    -1.1641232096212521E-016
  -2.5933333333333335E-005     1.1225018549796007E-015
  -2.5733333333333333E-005     3.6871217325040570E-015
  -2.5533333333333335E-005     7.6371337079414135E-015
  -2.5333333333333337E-005     1.1919504986680466E-014
  -2.5133333333333336E-005     1.3506580316900271E-014
  -2.4933333333333334E-005     6.8992545679146914E-015
  -2.4733333333333336E-005    -1.5065812690177807E-014
  -2.4533333333333334E-005    -5.7936577149842736E-014
  -2.4333333333333333E-005    -1.1913053333925090E-013
  -2.4133333333333335E-005    -1.7894208897760485E-013
  -2.3933333333333337E-005    -1.9266825388455524E-013
  -2.3733333333333335E-005    -9.1051047908698894E-014
  -2.3533333333333334E-005     2.0113882282795022E-013
  -2.3333333333333336E-005     7.1987100793441631E-013
  -2.3133333333333338E-005     1.3901578318808698E-012
  -2.2933333333333336E-005     1.9461219692617472E-012
  -2.2733333333333335E-005     1.8863069106570825E-012
  -2.2533333333333337E-005     5.3115030165270463E-013
  -2.2333333333333335E-005    -2.7453758843527957E-012
  -2.2133333333333334E-005    -8.0720428227168297E-012
  -2.1933333333333336E-005    -1.4476211365627962E-011
  -2.1733333333333338E-005    -1.9314044251491112E-011
  -2.1533333333333336E-005    -1.8092329028318036E-011
  -2.1333333333333335E-005    -5.1466994509309635E-012
  -2.1133333333333337E-005     2.4411348739205026E-011
  -2.0933333333333335E-005     7.1381629936585776E-011
  -2.0733333333333334E-005     1.2832327878043381E-010
  -2.0533333333333336E-005     1.7594305069924274E-010
  -2.0333333333333337E-005     1.8223346886971593E-010
  -2.0133333333333336E-005     1.0695581579627769E-010
  -1.9933333333333334E-005    -8.6494817274012895E-011
  -1.9733333333333336E-005    -4.1170153913445141E-010
  -1.9533333333333335E-005    -8.3543971708962618E-010
  -1.9333333333333333E-005    -1.2566924884975520E-009
  -1.9133333333333335E-005    -1.4992828739348886E-009
  -1.8933333333333337E-005    -1.3302637518046952E-009
  -1.8733333333333336E-005    -5.1332686134705732E-010
  -1.8533333333333334E-005     1.1018486618072437E-009
  -1.8333333333333336E-005     3.4669001805203277E-009
  -1.8133333333333335E-005     6.2275022540854564E-009
  -1.7933333333333337E-005     8.6642802858338809E-009
  -1.7733333333333335E-005     9.7301411066998904E-009
  -1.7533333333333337E-005     8.2228792832807126E-009
  -1.7333333333333336E-005     3.1041023108229713E-009
  -1.7133333333333334E-005    -6.0694510365816782E-009
  -1.6933333333333336E-005    -1.8690108561690406E-008
  -1.6733333333333335E-005    -3.2755471813366669E-008
  -1.6533333333333337E-005    -4.4797695515364988E-008
  -1.6333333333333335E-005    -5.0229799987385148E-008
  -1.6133333333333337E-005    -4.4183598576556221E-008
  -1.5933333333333336E-005    -2.2794509209714646E-008
  -1.5733333333333334E-005     1.5261902756904357E-008
  -1.5533333333333336E-005     6.7323486189499140E-008
  -1.5333333333333334E-005     1.2582539931755858E-007
  -1.5133333333333336E-005     1.7836075111874731E-007
  -1.4933333333333335E-005     2.0904861295485635E-007
  -1.4733333333333337E-005     2.0129745453663345E-007
  -1.4533333333333335E-005     1.4171458120340968E-007
  -1.4333333333333337E-005     2.4541271368745561E-008
  -1.4133333333333336E-005    -1.4432158870481011E-007
  -1.3933333333333334E-005    -3.4479954661538427E-007
  -1.3733333333333336E-005    -5.4268500993075776E-007
  -1.3533333333333335E-005    -6.9295334423942861E-007
  -1.3333333333333337E-005    -7.4650602949337988E-007
  -1.3133333333333335E-005    -6.5975624092149730E-007
  -1.2933333333333337E-005    -4.0569591027832018E-007
  -1.2733333333333336E-005     1.5571339674091702E-008
  -1.2533333333333338E-005     5.6921057416916139E-007
  -1.2333333333333336E-005     1.1832725205722968E-006
  -1.2133333333333335E-005     1.7533219873258096E-006
  -1.1933333333333337E-005     2.1548239549604189E-006
  -1.1733333333333335E-005     2.2626346590303159E-006
  -1.1533333333333337E-005     1.9753764940631559E-006
  -1.1333333333333336E-005     1.2410183900813180E-006
  -1.1133333333333337E-005     7.8920670755718365E-008
  -1.0933333333333336E-005    -1.4067387082036128E-006
  -1.0733333333333334E-005    -3.0266682466362788E-006
  -1.0533333333333336E-005    -4.5222444183705113E-006
  -1.0333333333333335E-005    -5.5978154996281474E-006
  -1.0133333333333337E-005    -5.9668765502401951E-006
  -9.9333333333333354E-006    -5.4062275360160775E-006
  -9.7333333333333373E-006    -3.8094909136096372E-006
  -9.5333333333333358E-006    -1.2297675318240179E-006
  -9.3333333333333343E-006     2.0986616182578307E-006
  -9.1333333333333362E-006     5.7675775261375188E-006
  -8.9333333333333348E-006     9.2348644871046889E-006
  -8.7333333333333367E-006     1.1895640411008637E-005
  -8.5333333333333352E-006     1.3176530391495134E-005
  -8.3333333333333371E-006     1.2639447263747947E-005
  -8.1333333333333356E-006     1.0077344555639966E-005
  -7.9333333333333376E-006     5.5833032866186227E-006
  -7.7333333333333361E-006    -4.2330704919174485E-007
  -7.5333333333333346E-006    -7.2239818560740570E-006
  -7.3333333333333365E-006    -1.3883384035646182E-005
  -7.1333333333333351E-006    -1.9378624246654710E-005
  -6.9333333333333370E-006    -2.2757757582186937E-005
  -6.7333333333333355E-006    -2.3302509257856393E-005
  -6.5333333333333374E-006    -2.0666925274239811E-005
  -6.3333333333333359E-006    -1.4965360492861199E-005
  -6.1333333333333379E-006    -6.7900412221875221E-006
  -5.9333333333333364E-006     2.8505371397969473E-006
  -5.7333333333333349E-006     1.2667464458408217E-005
  -5.5333333333333368E-006     2.1282974709182799E-005
  -5.3333333333333354E-006     2.7447779937055596E-005
  -5.1333333333333373E-006     3.0247677434067376E-005
  -4.9333333333333358E-006     2.9262606604910561E-005
  -4.7333333333333377E-006     2.4647601040938045E-005
  -4.5333333333333362E-006     1.7117631641958785E-005
  -4.3333333333333348E-006     7.8345926271119023E-006
  -4.1333333333333367E-006    -1.7873983905847546E-006
  -3.9333333333333352E-006    -1.0326501147986440E-005
  -3.7333333333333371E-006    -1.6604692542944879E-005
  -3.5333333333333356E-006    -1.9900018442806597E-005
  -3.3333333333333376E-006    -2.0078184628809332E-005
  -3.1333333333333361E-006    -1.7615114791869363E-005
  -2.9333333333333346E-006    -1.3501208060008409E-005
  -2.7333333333333365E-006    -9.0401410762635369E-006
  -2.5333333333333384E-006    -5.5761561129646622E-006
  -2.3333333333333336E-006    -4.1995702769869541E-006
  -2.1333333333333355E-006    -5.4877803955660809E-006
  -1.9333333333333374E-006    -9.3357620578891275E-006
  -1.7333333333333393E-006    -1.4916315508223779E-005
  -1.5333333333333345E-006    -2.0787650327203306E-005
  -1.3333333333333364E-006    -2.5138362191980606E-005
  -1.1333333333333383E-006    -2.6132166559831174E-005
  -9.3333333333333343E-007    -2.2292601714539681E-005
  -7.3333333333333535E-007    -1.2855568018199918E-005
  -5.3333333333333726E-007     1.9813444828268776E-006
  -3.3333333333333918E-007     2.0969198868988214E-005
  -1.3333333333333432E-007     4.1907379060851274E-005
   6.6666666666663770E-008     6.1928291058100805E-005
   2.6666666666666185E-007     7.7927348565389525E-005
   4.6666666666666672E-007     8.7068740911207753E-005
   6.6666666666666480E-007     8.7279231025158479E-005
   8.6666666666666289E-007     7.7639945611490132E-005
   1.0666666666666610E-006     5.8600549878059002E-005
   1.2666666666666658E-006     3.1969983351451392E-005
   1.4666666666666639E-006     6.7725613542994384E-007
   1.6666666666666620E-006    -3.1662401871683679E-005
   1.8666666666666669E-006    -6.1303868197677466E-005
   2.0666666666666649E-006    -8.4955318616348476E-005
   2.2666666666666630E-006    -1.0028568141088793E-004
   2.4666666666666611E-006    -1.0626671874230207E-004
   2.6666666666666660E-006    -1.0328869629226628E-004
   2.8666666666666641E-006    -9.3029610494535479E-005
   3.0666666666666622E-006    -7.8101424197274234E-005
   3.2666666666666602E-006    -6.1536647200083485E-005
   3.4666666666666651E-006    -4.6205968185150930E-005
   3.6666666666666632E-006    -3.4269281480260141E-005
   3.8666666666666613E-006    -2.6755273525240754E-005
   4.0666666666666661E-006    -2.3342092242190761E-005
   4.2666666666666642E-006    -2.2377060267024436E-005
   4.4666666666666623E-006    -2.1134038884456112E-005
   4.6666666666666604E-006    -1.6269039238640443E-005
   4.8666666666666652E-006    -4.4050077899013154E-006
   5.0666666666666633E-006     1.7241767376113333E-005
   5.2666666666666614E-006     5.0285314997715836E-005
   5.4666666666666663E-006     9.4726154064144459E-005
   5.6666666666666644E-006     1.4870249601668575E-004
   5.8666666666666624E-006     2.0847129264660688E-004
   6.0666666666666605E-006     2.6862351855390897E-004
   6.2666666666666654E-006     3.2250960370601970E-004
   6.4666666666666635E-006     3.6282737596168228E-004
   6.6666666666666616E-006     3.8230989001652695E-004
   6.8666666666666664E-006     3.7444497864071527E-004
   7.0666666666666645E-006     3.3416200658458654E-004
   7.2666666666666626E-006     2.5843238871010556E-004
   7.4666666666666607E-006     1.4674489793375912E-004
   7.6666666666666655E-006     1.4319887849788423E-006
   7.8666666666666636E-006    -1.7216560564904736E-004
   8.0666666666666617E-006    -3.6570323488623784E-004
   8.2666666666666598E-006    -5.6801371807192660E-004
   8.4666666666666647E-006    -7.6547876089855661E-004
   8.6666666666666627E-006    -9.4260883483641348E-004
   8.8666666666666608E-006    -1.0828487506241969E-003
   9.0666666666666657E-006    -1.1696157728100349E-003
   9.2666666666666638E-006    -1.1875540156996345E-003
   9.4666666666666619E-006    -1.1239524487720793E-003
   9.6666666666666599E-006    -9.7023165279863633E-004
   9.8666666666666648E-006    -7.2336266697598916E-004
   1.0066666666666663E-005    -3.8705151405771362E-004
   1.0266666666666661E-005     2.7486864234068926E-005
   1.0466666666666666E-005     5.0132449307979600E-004
   1.0666666666666664E-005     1.0082989664868774E-003
   1.0866666666666662E-005     1.5162180497982447E-003
   1.1066666666666660E-005     1.9887521218135270E-003
   1.1266666666666665E-005     2.3878915227013497E-003
   1.1466666666666663E-005     2.6767776099104737E-003
   1.1666666666666661E-005     2.8226652149586028E-003
   1.1866666666666666E-005     2.7997600186793902E-003
   1.2066666666666664E-005     2.5916844448209547E-003
   1.2266666666666662E-005     2.1933616648455055E-003
   1.2466666666666660E-005     1.6121626035570183E-003
   1.2666666666666665E-005     8.6822120038692013E-004
   1.2866666666666663E-005    -6.1117653138542238E-006
   1.3066666666666661E-005    -9.6764924535453975E-004
   1.3266666666666666E-005    -1.9645052690667442E-003
   1.3466666666666664E-005    -2.9388611813653898E-003
   1.3666666666666662E-005    -3.8302020609447662E-003
   1.3866666666666660E-005    -4.5788323488737456E-003
   1.4066666666666665E-005    -5.1294630282059982E-003
   1.4266666666666663E-005    -5.4346510740053457E-003
   1.4466666666666661E-005    -5.4578919692875516E-003
   1.4666666666666666E-005    -5.1761875221881266E-003
   1.4866666666666664E-005    -4.5819462183455482E-003
   1.5066666666666662E-005    -3.6841324536658988E-003
   1.5266666666666661E-005    -2.5086210941148435E-003
   1.5466666666666665E-005    -1.0977583341606016E-003
   1.5666666666666663E-005     4.9084174019083820E-004
   1.5866666666666662E-005     2.1862294129555686E-003
   1.6066666666666660E-005     3.9067381417335848E-003
   1.6266666666666665E-005     5.5632407683241089E-003
   1.6466666666666663E-005     7.0630029248970778E-003
   1.6666666666666661E-005     8.3140473571841449E-003
   1.6866666666666666E-005     9.2299185387203827E-003
   1.7066666666666664E-005     9.7346692617921952E-003
   1.7266666666666662E-005     9.7678307646885849E-003
   1.7466666666666660E-005     9.2890776369412217E-003
   1.7666666666666665E-005     8.2822522772919831E-003
   1.7866666666666663E-005     6.7584307078619498E-003
   1.8066666666666661E-005     4.7577295821376354E-003
   1.8266666666666666E-005     2.3496068859076317E-003
   1.8466666666666664E-005    -3.6848353250613789E-004
   1.8666666666666662E-005    -3.2741705074673215E-003
   1.8866666666666660E-005    -6.2249399356909887E-003
   1.9066666666666665E-005    -9.0645094651362629E-003
   1.9266666666666663E-005    -1.1630591005273725E-002
   1.9466666666666661E-005    -1.3763739762360411E-002
   1.9666666666666666E-005    -1.5316886218151034E-002
   1.9866666666666664E-005    -1.6165039326808239E-002
   2.0066666666666662E-005    -1.6214519618985068E-002
   2.0266666666666660E-005    -1.5411049661769557E-002
   2.0466666666666665E-005    -1.3745969954145364E-002
   2.0666666666666663E-005    -1.1259922877537524E-002
   2.0866666666666661E-005    -8.0434994810445123E-003
   2.1066666666666659E-005    -4.2345589697512526E-003
   2.1266666666666664E-005    -1.2201408395166955E-005
   2.1466666666666662E-005     4.4122964538363570E-003
   2.1666666666666660E-005     8.8070245954737017E-003
   2.1866666666666665E-005     1.2932679257510116E-002
   2.2066666666666663E-005     1.6556569517956927E-002
   2.2266666666666661E-005     1.9466473600731806E-002
   2.2466666666666659E-005     2.1483442219276352E-002
   2.2666666666666664E-005     2.2472783188136527E-002
   2.2866666666666662E-005     2.2352576260923566E-002
   2.3066666666666660E-005     2.1099267432785843E-002
   2.3266666666666665E-005     1.8749990531816255E-002
   2.3466666666666663E-005     1.5401512666142309E-002
   2.3666666666666661E-005     1.1205786805868360E-002
   2.3866666666666660E-005     6.3623468825986674E-003
   2.4066666666666664E-005     1.1079522912980280E-003
   2.4266666666666662E-005    -4.2959172459551883E-003
   2.4466666666666661E-005    -9.5769422560058361E-003
   2.4666666666666665E-005    -1.4466382951493875E-002
   2.4866666666666663E-005    -1.8713162334204808E-002
   2.5066666666666662E-005    -2.2096808850067106E-002
   2.5266666666666660E-005    -2.4438653598574077E-002
   2.5466666666666665E-005    -2.5610800310081217E-002
   2.5666666666666663E-005    -2.5542588884695055E-002
   2.5866666666666661E-005    -2.4224453006273086E-002
   2.6066666666666666E-005    -2.1709047580337024E-002
   2.6266666666666664E-005    -1.8109668119227745E-002
   2.6466666666666662E-005    -1.3595885064477470E-002
   2.6666666666666660E-005    -8.3864092627584375E-003
   2.6866666666666665E-005    -2.7392435006162088E-003
   2.7066666666666663E-005     3.0606477394725046E-003
   2.7266666666666661E-005     8.7157330086841140E-003
   2.7466666666666666E-005     1.3931658311059589E-002
   2.7666666666666664E-005     1.8433465310811747E-002
   2.7866666666666662E-005     2.1981213107837728E-002
   2.8066666666666667E-005     2.4383972206248168E-002
   2.8266666666666658E-005     2.5511179292253883E-002
   2.8466666666666663E-005     2.5300616497242152E-002
   2.8666666666666668E-005     2.3762516696602124E-002
   2.8866666666666659E-005     2.0979542307477075E-002
   2.9066666666666664E-005     1.7102679331682281E-002
   2.9266666666666669E-005     1.2343258274878147E-002
   2.9466666666666660E-005     6.9614830479721671E-003
   2.9666666666666665E-005     1.2520234519066177E-003
   2.9866666666666656E-005    -4.4726372142838040E-003
   3.0066666666666661E-005    -9.9001924295230859E-003
   3.0266666666666666E-005    -1.4736753389870820E-002
   3.0466666666666657E-005    -1.8724117553488847E-002
   3.0666666666666662E-005    -2.1654790612236081E-002
   3.0866666666666667E-005    -2.3383578288727665E-002
   3.1066666666666658E-005    -2.3834826097711745E-002
   3.1266666666666663E-005    -2.3004796240251157E-002
   3.1466666666666668E-005    -2.0959192292248349E-002
   3.1666666666666659E-005    -1.7826266266310647E-002
   3.1866666666666664E-005    -1.3786425875845467E-002
   3.2066666666666656E-005    -9.0594332789279350E-003
   3.2266666666666660E-005    -3.8903696246670068E-003
   3.2466666666666665E-005     1.4645686897317633E-003
   3.2666666666666657E-005     6.7515418197938055E-003
   3.2866666666666661E-005     1.1731183348306631E-002
   3.3066666666666666E-005     1.6188892453679320E-002
   3.3266666666666658E-005     1.9942984785339991E-002
   3.3466666666666662E-005     2.2850435333994321E-002
   3.3666666666666667E-005     2.4810050128960509E-002
   3.3866666666666659E-005     2.5763013062399337E-002
   3.4066666666666664E-005     2.5690943403779788E-002
   3.4266666666666668E-005     2.4611842763848951E-002
   3.4466666666666660E-005     2.2574587098523904E-002
   3.4666666666666665E-005     1.9652877763751943E-002
   3.4866666666666656E-005     1.5939581867942278E-002
   3.5066666666666661E-005     1.1542328767378852E-002
   3.5266666666666666E-005     6.5808503568145545E-003
   3.5466666666666657E-005     1.1861837666407391E-003
   3.5666666666666662E-005    -4.4987322612134225E-003
   3.5866666666666667E-005    -1.0317846661562956E-002
   3.6066666666666658E-005    -1.6101214901342593E-002
   3.6266666666666663E-005    -2.1665669899113525E-002
   3.6466666666666668E-005    -2.6817679327100535E-002
   3.6666666666666659E-005    -3.1358745711295419E-002
   3.6866666666666664E-005    -3.5093210827328310E-002
   3.7066666666666669E-005    -3.7837975959528918E-002
   3.7266666666666660E-005    -3.9433306457551047E-002
   3.7466666666666665E-005    -3.9753821529837668E-002
   3.7666666666666656E-005    -3.8718715037234910E-002
   3.7866666666666661E-005    -3.6300315370102490E-002
   3.8066666666666666E-005    -3.2530170824993182E-002
   3.8266666666666657E-005    -2.7501904045437522E-002
   3.8466666666666662E-005    -2.1370132402425027E-002
   3.8666666666666667E-005    -1.4344940989436618E-002
   3.8866666666666658E-005    -6.6816965770514448E-003
   3.9066666666666663E-005     1.3335869590497705E-003
   3.9266666666666668E-005     9.4024715637891533E-003
   3.9466666666666659E-005     1.7234422046143921E-002
   3.9666666666666664E-005     2.4567160206751631E-002
   3.9866666666666655E-005     3.1184734430824534E-002
   4.0066666666666660E-005     3.6930990092067975E-002
   4.0266666666666665E-005     4.1716655914689718E-002
   4.0466666666666656E-005     4.5519093517367090E-002
   4.0666666666666661E-005     4.8374772772429707E-002
   4.0866666666666666E-005     5.0365600066822128E-002
   4.1066666666666657E-005     5.1600950245613751E-002
   4.1266666666666662E-005     5.2197882890123407E-002
   4.1466666666666667E-005     5.2261864547432028E-002
   4.1666666666666658E-005     5.1870235752882118E-002
   4.1866666666666663E-005     5.1059965967902785E-002
   4.2066666666666668E-005     4.9820662896280093E-002
   4.2266666666666660E-005     4.8093207997781058E-002
   4.2466666666666664E-005     4.5773777983655770E-002
   4.2666666666666656E-005     4.2722656547925078E-002
   4.2866666666666661E-005     3.8776737278745074E-002
   4.3066666666666665E-005     3.3764341467616220E-002
   4.3266666666666657E-005     2.7520478676054942E-002
   4.3466666666666662E-005     1.9900491974634643E-002
   4.3666666666666666E-005     1.0789870563592360E-002
   4.3866666666666658E-005     1.0830706563116910E-004
   4.4066666666666663E-005    -1.2193384855554740E-002
   4.4266666666666667E-005    -2.6143767978923510E-002
   4.4466666666666659E-005    -4.1767667097370051E-002
   4.4666666666666664E-005    -5.9107020396183318E-002
   4.4866666666666655E-005    -7.8242145247853168E-002
   4.5066666666666660E-005    -9.9309185074744510E-002
   4.5266666666666665E-005   -0.12250965289057572     
   4.5466666666666656E-005   -0.14810869785327280     
   4.5666666666666661E-005   -0.17642023315313460     
   4.5866666666666666E-005   -0.20777894127379642     
   4.6066666666666657E-005   -0.24250132932156210     
   4.6266666666666662E-005   -0.28083923390861643     
   4.6466666666666667E-005   -0.32293117637836211     
   4.6666666666666658E-005   -0.36875688306771592     
   4.6866666666666663E-005   -0.41810076763632353     
   4.7066666666666668E-005   -0.47052929647145758     
   4.7266666666666659E-005   -0.52538657386666809     
   4.7466666666666664E-005   -0.58181015152809112     
   4.7666666666666655E-005   -0.63876818672301683     
   4.7866666666666660E-005   -0.69511636442836500     
   4.8066666666666665E-005   -0.74967079053341723     
   4.8266666666666656E-005   -0.80129207851804574     
   4.8466666666666661E-005   -0.84897105419940821     
   4.8666666666666666E-005   -0.89190890625652353     
   4.8866666666666657E-005   -0.92958170255603800     
   4.9066666666666662E-005   -0.96178053862240187     
   4.9266666666666667E-005   -0.98862185987487106     
   4.9466666666666658E-005    -1.0105234438039656     
   4.9666666666666663E-005    -1.0281482597383713     
   4.9866666666666655E-005    -1.0423192178552574     
   5.0066666666666659E-005    -1.0539135165729239     
   5.0266666666666664E-005    -1.0637474146991655     
   5.0466666666666656E-005    -1.0724625837791708     
   5.0666666666666660E-005    -1.0804253748101342     
   5.0866666666666665E-005    -1.0876491646855457     
   5.1066666666666657E-005    -1.0937455483233911     
   5.1266666666666661E-005    -1.0979098852632905     
   5.1466666666666666E-005    -1.0989397828552285     
   5.1666666666666658E-005    -1.0952845554867081     
   5.1866666666666662E-005    -1.0851205693672297     
   5.2066666666666667E-005    -1.0664438921863810     
   5.2266666666666659E-005    -1.0371732855157649     
   5.2466666666666664E-005   -0.99525313786271674     
   5.2666666666666655E-005   -0.93874854413334985     
   5.2866666666666660E-005   -0.86592466769239385     
   5.3066666666666665E-005   -0.77530452160454200     
   5.3266666666666656E-005   -0.66570203271786799     
   5.3466666666666661E-005   -0.53623047175537886     
   5.3666666666666666E-005   -0.38628842464982482     
   5.3866666666666657E-005   -0.21552906034651176     
   5.4066666666666662E-005    -2.3819344722895264E-002
   5.4266666666666667E-005    0.18880303999195136     
   5.4466666666666658E-005    0.42216725941248767     
   5.4666666666666663E-005    0.67599660100248382     
   5.4866666666666668E-005    0.94992275251005109     
   5.5066666666666659E-005     1.2434852499845532     
   5.5266666666666664E-005     1.5561207393442311     
   5.5466666666666655E-005     1.8871458618141137     
   5.5666666666666660E-005     2.2357365661305839     
   5.5866666666666665E-005     2.6009125232712877     
   5.6066666666666656E-005     2.9815273472101360     
   5.6266666666666661E-005     3.3762701743457137     
   5.6466666666666666E-005     3.7836783534392913     
   5.6666666666666657E-005     4.2021606971543832     
   5.6866666666666662E-005     4.6300292648099628     
   5.7066666666666667E-005     5.0655388390726479     
   5.7266666666666658E-005     5.5069271131220292     
   5.7466666666666663E-005     5.9524500010492529     
   5.7666666666666654E-005     6.4004122224267412     
   5.7866666666666659E-005     6.8491818892299658     
   5.8066666666666664E-005     7.2971872255143317     
   5.8266666666666655E-005     7.7428941240281102     
   5.8466666666666660E-005     8.1847570760288448     
   5.8666666666666665E-005     8.6211515424467677     
   5.8866666666666656E-005     9.0502872324304562     
   5.9066666666666661E-005     9.4701097465026898     
   5.9266666666666666E-005     9.8782041728203911     
   5.9466666666666657E-005     10.271701699400504     
   5.9666666666666662E-005     10.647207898282623     
   5.9866666666666667E-005     11.000754883606012     
   6.0066666666666659E-005     11.327786389139638     
   6.0266666666666663E-005     11.623178042743803     
   6.0466666666666655E-005     11.881290239718162     
   6.0666666666666660E-005     12.096057394612489     
   6.0866666666666664E-005     12.261102338878985     
   6.1066666666666656E-005     12.369875672487725     
   6.1266666666666661E-005     12.415813018262902     
   6.1466666666666665E-005     12.392504274043254     
   6.1666666666666657E-005     12.293866062468151     
   6.1866666666666662E-005     12.114312249254624     
   6.2066666666666666E-005     11.848916562912049     
   6.2266666666666658E-005     11.493564548003867     
   6.2466666666666663E-005     11.045086839936078     
   6.2666666666666668E-005     10.501372944093918     
   6.2866666666666659E-005     9.8614651424666704     
   6.3066666666666664E-005     9.1256366245121701     
   6.3266666666666655E-005     8.2954448125802358     
   6.3466666666666660E-005     7.3737799852378494     
   6.3666666666666665E-005     6.3648993427193563     
   6.3866666666666656E-005     5.2744477555401481     
   6.4066666666666661E-005     4.1094745897762994     
   6.4266666666666666E-005     2.8784443176698318     
   6.4466666666666657E-005     1.5912240772916224     
   6.4666666666666662E-005    0.25906706768452370     
   6.4866666666666667E-005    -1.1054357233569405     
   6.5066666666666658E-005    -2.4884170892636348     
   6.5266666666666663E-005    -3.8748362242683463     
   6.5466666666666654E-005    -5.2486009041490007     
   6.5666666666666659E-005    -6.5927188889848001     
   6.5866666666666664E-005    -7.8894855086158966     
   6.6066666666666655E-005    -9.1206861705525171     
   6.6266666666666660E-005    -10.267835010663143     
   6.6466666666666665E-005    -11.312422631342130     
   6.6666666666666656E-005    -12.236188732093318     
   6.6866666666666661E-005    -13.021397101465816     
   6.7066666666666666E-005    -13.651115610837625     
   6.7266666666666657E-005    -14.109484485368679     
   6.7466666666666662E-005    -14.381974300751818     
   6.7666666666666667E-005    -14.455624276183801     
   6.7866666666666658E-005    -14.319253350144180     
   6.8066666666666663E-005    -13.963640100446739     
   6.8266666666666655E-005    -13.381676695787910     
   6.8466666666666659E-005    -12.568494350171589     
   6.8666666666666664E-005    -11.521556979563357     
   6.8866666666666656E-005    -10.240734857647457     
   6.9066666666666660E-005    -8.7283588677815551     
   6.9266666666666665E-005    -6.9892577817401982     
   6.9466666666666657E-005    -5.0307793909281440     
   6.9666666666666661E-005    -2.8627972247044706     
   6.9866666666666666E-005   -0.49770453146168991     
   7.0066666666666658E-005     2.0496146978712959     
   7.0266666666666662E-005     4.7618255754098371     
   7.0466666666666654E-005     7.6192079362352789     
   7.0666666666666659E-005     10.599736117639679     
   7.0866666666666664E-005     13.679188846563004     
   7.1066666666666655E-005     16.831275329342908     
   7.1266666666666660E-005     20.027781365813777     
   7.1466666666666665E-005     23.238744484044695     
   7.1666666666666656E-005     26.432659548311307     
   7.1866666666666661E-005     29.576699515424451     
   7.2066666666666666E-005     32.636973259839309     
   7.2266666666666657E-005     35.578791277778890     
   7.2466666666666662E-005     38.366983004022188     
   7.2666666666666667E-005     40.966206936900448     
   7.2866666666666658E-005     43.341296673196489     
   7.3066666666666663E-005     45.457610622480715     
   7.3266666666666654E-005     47.281402714082873     
   7.3466666666666659E-005     48.780194918183646     
   7.3666666666666664E-005     49.923161502011340     
   7.3866666666666655E-005     50.681509660861828     
   7.4066666666666660E-005     51.028861360038597     
   7.4266666666666665E-005     50.941626528505395     
   7.4466666666666656E-005     50.399376012878363     
   7.4666666666666661E-005     49.385185756295598     
   7.4866666666666666E-005     47.885974733716623     
   7.5066666666666657E-005     45.892821710258296     
   7.5266666666666662E-005     43.401249280621123     
   7.5466666666666653E-005     40.411497613821282     