  -3.3333333333333335E-005     0.0000000000000000     
  -3.3133333333333337E-005     0.0000000000000000     
  -3.2933333333333332E-005     0.0000000000000000     
  -3.2733333333333334E-005     0.0000000000000000     
  -3.2533333333333336E-005     0.0000000000000000     
  -3.2333333333333338E-005     0.0000000000000000     
  -3.2133333333333333E-005     0.0000000000000000     
  -3.1933333333333335E-005     0.0000000000000000     
  -3.1733333333333337E-005     0.0000000000000000     
  -3.1533333333333332E-005     0.0000000000000000     
  -3.1333333333333334E-005     0.0000000000000000     
  -3.1133333333333336E-005     0.0000000000000000     
  -3.0933333333333338E-005     0.0000000000000000     
  -3.0733333333333333E-005     0.0000000000000000     
  -3.0533333333333335E-005     0.0000000000000000     
  -3.0333333333333337E-005     0.0000000000000000     
  -3.0133333333333335E-005     0.0000000000000000     
  -2.9933333333333334E-005     0.0000000000000000     
  -2.9733333333333336E-005     0.0000000000000000     
  -2.9533333333333334E-005     0.0000000000000000     
  -2.9333333333333336E-005     0.0000000000000000     
  -2.9133333333333334E-005     0.0000000000000000     
  -2.8933333333333336E-005     0.0000000000000000     
  -2.8733333333333335E-005     0.0000000000000000     
  -2.8533333333333333E-005     0.0000000000000000     
  -2.8333333333333335E-005     0.0000000000000000     
  -2.8133333333333337E-005     0.0000000000000000     
  -2.7933333333333336E-005     0.0000000000000000     
  -2.7733333333333334E-005     0.0000000000000000     
  -2.7533333333333336E-005     0.0000000000000000     
  -2.7333333333333335E-005     0.0000000000000000     
  -2.7133333333333333E-005     0.0000000000000000     
  -2.6933333333333335E-005     0.0000000000000000     
  -2.6733333333333337E-005     0.0000000000000000     
  -2.6533333333333336E-005     0.0000000000000000     
  -2.6333333333333334E-005     0.0000000000000000     
  -2.6133333333333336E-005     0.0000000000000000     
  -2.5933333333333335E-005     0.0000000000000000     
  -2.5733333333333333E-005     0.0000000000000000     
  -2.5533333333333335E-005     0.0000000000000000     
  -2.5333333333333337E-005     0.0000000000000000     
  -2.5133333333333336E-005     0.0000000000000000     
  -2.4933333333333334E-005     0.0000000000000000     
  -2.4733333333333336E-005     0.0000000000000000     
  -2.4533333333333334E-005     0.0000000000000000     
  -2.4333333333333333E-005     0.0000000000000000     
  -2.4133333333333335E-005     0.0000000000000000     
  -2.3933333333333337E-005     0.0000000000000000     
  -2.3733333333333335E-005     0.0000000000000000     
  -2.3533333333333334E-005     0.0000000000000000     
  -2.3333333333333336E-005     0.0000000000000000     
  -2.3133333333333338E-005     0.0000000000000000     
  -2.2933333333333336E-005     0.0000000000000000     
  -2.2733333333333335E-005     0.0000000000000000     
  -2.2533333333333337E-005     0.0000000000000000     
  -2.2333333333333335E-005     0.0000000000000000     
  -2.2133333333333334E-005     0.0000000000000000     
  -2.1933333333333336E-005     0.0000000000000000     
  -2.1733333333333338E-005     0.0000000000000000     
  -2.1533333333333336E-005     0.0000000000000000     
  -2.1333333333333335E-005     0.0000000000000000     
  -2.1133333333333337E-005     0.0000000000000000     
  -2.0933333333333335E-005     0.0000000000000000     
  -2.0733333333333334E-005     0.0000000000000000     
  -2.0533333333333336E-005     0.0000000000000000     
  -2.0333333333333337E-005     0.0000000000000000     
  -2.0133333333333336E-005     0.0000000000000000     
  -1.9933333333333334E-005     0.0000000000000000     
  -1.9733333333333336E-005     0.0000000000000000     
  -1.9533333333333335E-005     0.0000000000000000     
  -1.9333333333333333E-005     0.0000000000000000     
  -1.9133333333333335E-005     0.0000000000000000     
  -1.8933333333333337E-005     0.0000000000000000     
  -1.8733333333333336E-005     0.0000000000000000     
  -1.8533333333333334E-005     0.0000000000000000     
  -1.8333333333333336E-005     0.0000000000000000     
  -1.8133333333333335E-005     0.0000000000000000     
  -1.7933333333333337E-005     0.0000000000000000     
  -1.7733333333333335E-005     0.0000000000000000     
  -1.7533333333333337E-005     0.0000000000000000     
  -1.7333333333333336E-005     0.0000000000000000     
  -1.7133333333333334E-005     0.0000000000000000     
  -1.6933333333333336E-005     0.0000000000000000     
  -1.6733333333333335E-005     0.0000000000000000     
  -1.6533333333333337E-005     0.0000000000000000     
  -1.6333333333333335E-005     0.0000000000000000     
  -1.6133333333333337E-005     0.0000000000000000     
  -1.5933333333333336E-005     0.0000000000000000     
  -1.5733333333333334E-005     0.0000000000000000     
  -1.5533333333333336E-005     0.0000000000000000     
  -1.5333333333333334E-005     0.0000000000000000     
  -1.5133333333333336E-005     0.0000000000000000     
  -1.4933333333333335E-005     0.0000000000000000     
  -1.4733333333333337E-005     0.0000000000000000     
  -1.4533333333333335E-005     0.0000000000000000     
  -1.4333333333333337E-005     0.0000000000000000     
  -1.4133333333333336E-005     0.0000000000000000     
  -1.3933333333333334E-005     0.0000000000000000     
  -1.3733333333333336E-005     0.0000000000000000     
  -1.3533333333333335E-005     0.0000000000000000     
  -1.3333333333333337E-005     0.0000000000000000     
  -1.3133333333333335E-005     0.0000000000000000     
  -1.2933333333333337E-005     0.0000000000000000     
  -1.2733333333333336E-005     0.0000000000000000     
  -1.2533333333333338E-005     0.0000000000000000     
  -1.2333333333333336E-005     0.0000000000000000     
  -1.2133333333333335E-005     0.0000000000000000     
  -1.1933333333333337E-005     0.0000000000000000     
  -1.1733333333333335E-005     0.0000000000000000     
  -1.1533333333333337E-005     0.0000000000000000     
  -1.1333333333333336E-005     0.0000000000000000     
  -1.1133333333333337E-005     0.0000000000000000     
  -1.0933333333333336E-005     0.0000000000000000     
  -1.0733333333333334E-005     0.0000000000000000     
  -1.0533333333333336E-005     0.0000000000000000     
  -1.0333333333333335E-005     0.0000000000000000     
  -1.0133333333333337E-005     0.0000000000000000     
  -9.9333333333333354E-006     0.0000000000000000     
  -9.7333333333333373E-006     0.0000000000000000     
  -9.5333333333333358E-006     0.0000000000000000     
  -9.3333333333333343E-006     0.0000000000000000     
  -9.1333333333333362E-006     0.0000000000000000     
  -8.9333333333333348E-006     0.0000000000000000     
  -8.7333333333333367E-006     0.0000000000000000     
  -8.5333333333333352E-006     0.0000000000000000     
  -8.3333333333333371E-006     0.0000000000000000     
  -8.1333333333333356E-006     0.0000000000000000     
  -7.9333333333333376E-006     0.0000000000000000     
  -7.7333333333333361E-006     0.0000000000000000     
  -7.5333333333333346E-006     0.0000000000000000     
  -7.3333333333333365E-006     0.0000000000000000     
  -7.1333333333333351E-006     0.0000000000000000     
  -6.9333333333333370E-006     0.0000000000000000     
  -6.7333333333333355E-006     0.0000000000000000     
  -6.5333333333333374E-006     0.0000000000000000     
  -6.3333333333333359E-006     0.0000000000000000     
  -6.1333333333333379E-006     0.0000000000000000     
  -5.9333333333333364E-006     0.0000000000000000     
  -5.7333333333333349E-006     0.0000000000000000     
  -5.5333333333333368E-006     0.0000000000000000     
  -5.3333333333333354E-006     0.0000000000000000     
  -5.1333333333333373E-006     0.0000000000000000     
  -4.9333333333333358E-006     0.0000000000000000     
  -4.7333333333333377E-006     0.0000000000000000     
  -4.5333333333333362E-006     0.0000000000000000     
  -4.3333333333333348E-006     0.0000000000000000     
  -4.1333333333333367E-006     0.0000000000000000     
  -3.9333333333333352E-006     0.0000000000000000     
  -3.7333333333333371E-006     0.0000000000000000     
  -3.5333333333333356E-006     0.0000000000000000     
  -3.3333333333333376E-006     0.0000000000000000     
  -3.1333333333333361E-006     0.0000000000000000     
  -2.9333333333333346E-006     0.0000000000000000     
  -2.7333333333333365E-006     0.0000000000000000     
  -2.5333333333333384E-006     0.0000000000000000     
  -2.3333333333333336E-006     0.0000000000000000     
  -2.1333333333333355E-006     0.0000000000000000     
  -1.9333333333333374E-006     0.0000000000000000     
  -1.7333333333333393E-006     0.0000000000000000     
  -1.5333333333333345E-006     0.0000000000000000     
  -1.3333333333333364E-006     0.0000000000000000     
  -1.1333333333333383E-006     0.0000000000000000     
  -9.3333333333333343E-007     0.0000000000000000     
  -7.3333333333333535E-007     0.0000000000000000     
  -5.3333333333333726E-007     0.0000000000000000     
  -3.3333333333333918E-007     0.0000000000000000     
  -1.3333333333333432E-007     0.0000000000000000     
   6.6666666666663770E-008     0.0000000000000000     
   2.6666666666666185E-007     2.8082035449270266E-041
   4.6666666666666672E-007     2.8082035449270266E-041
   6.6666666666666480E-007     2.8082035449270266E-041
   8.6666666666666289E-007     2.9623060695646606E-041
   1.0666666666666610E-006    -2.3634397094811016E-040
   1.2666666666666658E-006    -6.4695090046404469E-040
   1.4666666666666639E-006    -7.9149649779469375E-040
   1.6666666666666620E-006    -9.0418910917192015E-040
   1.8666666666666669E-006    -4.6555656755950086E-040
   2.0666666666666649E-006    -1.3964858201479820E-039
   2.2666666666666630E-006    -2.6721467895390520E-039
   2.4666666666666611E-006    -4.7344415742795250E-039
   2.6666666666666660E-006    -7.1036831597286540E-039
   2.8666666666666641E-006    -7.2855984066522292E-039
   3.0666666666666622E-006    -5.1147497154802599E-039
   3.2666666666666602E-006     2.2179755848536373E-039
   3.4666666666666651E-006     1.7399895639288574E-038
   3.6666666666666632E-006     3.7853172292515900E-038
   3.8666666666666613E-006     6.0966457831001833E-038
   4.0666666666666661E-006     7.9232402727372621E-038
   4.2666666666666642E-006     9.5272059101685833E-038
   4.4666666666666623E-006     8.8716502088847106E-038
   4.6666666666666604E-006     6.8402292256800132E-038
   4.8666666666666652E-006     1.9858559008242333E-038
   5.0666666666666633E-006    -6.1520928998442591E-038
   5.2666666666666614E-006    -1.8173627962899472E-037
   5.4666666666666663E-006    -3.4193558789052208E-037
   5.6666666666666644E-006    -5.1463287561305232E-037
   5.8666666666666624E-006    -6.7339624058984624E-037
   6.0666666666666605E-006    -7.5965110869635263E-037
   6.2666666666666654E-006    -7.0960983173102397E-037
   6.4666666666666635E-006    -4.4388146995049653E-037
   6.6666666666666616E-006     9.3083157656575138E-038
   6.8666666666666664E-006     9.5282496453039941E-037
   7.0666666666666645E-006     2.1013408350022928E-036
   7.2666666666666626E-006     3.4215485646459140E-036
   7.4666666666666607E-006     4.6677862382390525E-036
   7.6666666666666655E-006     5.4863500125287377E-036
   7.8666666666666636E-006     5.3818457644318497E-036
   8.0666666666666617E-006     3.8065556154929343E-036
   8.2666666666666598E-006     2.6456101216945479E-037
   8.4666666666666647E-006    -5.5212444638780752E-036
   8.6666666666666627E-006    -1.3396187427924521E-035
   8.8666666666666608E-006    -2.2547603957369644E-035
   9.0666666666666657E-006    -3.1320588748105487E-035
   9.2666666666666638E-006    -3.7155564120533368E-035
   9.4666666666666619E-006    -3.6740135727656441E-035
   9.6666666666666599E-006    -2.6463925245474513E-035
   9.8666666666666648E-006    -3.2315239293331412E-036
   1.0066666666666663E-005     3.4382580600905754E-035
   1.0266666666666661E-005     8.4761213338576516E-035
   1.0466666666666666E-005     1.4191514878058255E-034
   1.0666666666666664E-005     1.9459880795305735E-034
   1.0866666666666662E-005     2.2637776143055305E-034
   1.1066666666666660E-005     2.1717175624016889E-034
   1.1266666666666665E-005     1.4667223407351644E-034
   1.1466666666666663E-005    -2.7841798437940831E-037
   1.1666666666666661E-005    -2.2676738202125164E-034
   1.1866666666666666E-005    -5.1644093387222781E-034
   1.2066666666666664E-005    -8.2748772807914713E-034
   1.2266666666666662E-005    -1.0903651634232531E-033
   1.2466666666666660E-005    -1.2118687491738168E-033
   1.2666666666666665E-005    -1.0877290587395085E-033
   1.2866666666666663E-005    -6.2466840455717269E-034
   1.3066666666666661E-005     2.2930156955377777E-034
   1.3266666666666666E-005     1.4504603095162434E-033
   1.3466666666666664E-005     2.9081441294465711E-033
   1.3666666666666662E-005     4.3467263395129824E-033
   1.3866666666666660E-005     5.3920927855501073E-033
   1.4066666666666665E-005     5.5926217497784815E-033
   1.4266666666666663E-005     4.5000167733818764E-033
   1.4466666666666661E-005     1.7870342424051463E-033
   1.4666666666666666E-005    -2.6122149976408825E-033
   1.4866666666666664E-005    -8.3663534009834347E-033
   1.5066666666666662E-005    -1.4653152915896283E-032
   1.5266666666666661E-005    -2.0151777691276147E-032
   1.5466666666666665E-005    -2.3160540797053773E-032
   1.5666666666666663E-005    -2.1863655163125186E-032
   1.5866666666666662E-005    -1.4740963021888866E-032
   1.6066666666666660E-005    -1.0743286053892019E-033
   1.6266666666666665E-005     1.8540311563325909E-032
   1.6466666666666663E-005     4.1804847261222169E-032
   1.6666666666666661E-005     6.4604125983131309E-032
   1.6866666666666666E-005     8.1301456492194683E-032
   1.7066666666666664E-005     8.5528279203235741E-032
   1.7266666666666662E-005     7.1456128228628773E-032
   1.7466666666666660E-005     3.5410554979726753E-032
   1.7666666666666665E-005    -2.2452399061451799E-032
   1.7866666666666663E-005    -9.6802021868615456E-032
   1.8066666666666661E-005    -1.7656926243179471E-031
   1.8266666666666666E-005    -2.4556620415564665E-031
   1.8466666666666664E-005    -2.8452635158348797E-031
   1.8666666666666662E-005    -2.7452206853899282E-031
   1.8866666666666660E-005    -2.0135919449448836E-031
   1.9066666666666665E-005    -6.0186634155219795E-032
   1.9266666666666663E-005     1.4070995732221228E-031
   1.9466666666666661E-005     3.7803441945723943E-031
   1.9666666666666666E-005     6.1443434799304864E-031
   1.9866666666666664E-005     8.0270374917091588E-031
   2.0066666666666662E-005     8.9293716142078963E-031
   2.0266666666666660E-005     8.4154133165688828E-031
   2.0466666666666665E-005     6.2035448046122099E-031
   2.0666666666666663E-005     2.2385265606021970E-031
   2.0866666666666661E-005    -3.2727597379858360E-031
   2.1066666666666659E-005    -9.8697809742198347E-031
   2.1266666666666664E-005    -1.6884909420743937E-030
   2.1466666666666662E-005    -2.3507122537599892E-030
   2.1666666666666660E-005    -2.8832107265866392E-030
   2.1866666666666665E-005    -3.1869615883381586E-030
   2.2066666666666663E-005    -3.1496572010187058E-030
   2.2266666666666661E-005    -2.6378836454094844E-030
   2.2466666666666659E-005    -1.4929597306877959E-030
   2.2666666666666664E-005     4.5854105228528225E-031
   2.2866666666666662E-005     3.3666189523135499E-030
   2.3066666666666660E-005     7.2816596194557198E-030
   2.3266666666666665E-005     1.2038747543473611E-029
   2.3466666666666663E-005     1.7116793682570444E-029
   2.3666666666666661E-005     2.1507601452514032E-029
   2.3866666666666660E-005     2.3651419378997035E-029
   2.4066666666666664E-005     2.1510395740548246E-029
   2.4266666666666662E-005     1.2850464050353822E-029
   2.4466666666666661E-005    -4.2228666241623893E-030
   2.4666666666666665E-005    -3.0484222430137550E-029
   2.4866666666666663E-005    -6.4656288504068048E-029
   2.5066666666666662E-005    -1.0251988387768447E-028
   2.5266666666666660E-005    -1.3635678841916419E-028
   2.5466666666666665E-005    -1.5507752100909282E-028
   2.5666666666666663E-005    -1.4537449588486700E-028
   2.5866666666666661E-005    -9.4124827893917973E-029
   2.6066666666666666E-005     7.9744448939523763E-030
   2.6266666666666664E-005     1.6191101987929710E-028
   2.6466666666666662E-005     3.5579933660440012E-028
   2.6666666666666660E-005     5.6146496884791041E-028
   2.6866666666666665E-005     7.3364420055893629E-028
   2.7066666666666663E-005     8.1326436457815230E-028
   2.7266666666666661E-005     7.3586214959079111E-028
   2.7466666666666666E-005     4.4532489845796571E-028
   2.7666666666666664E-005    -8.8173653222844155E-029
   2.7866666666666662E-005    -8.4875718765037144E-028
   2.8066666666666667E-005    -1.7582357800240677E-027
   2.8266666666666658E-005    -2.6677081774826953E-027
   2.8466666666666663E-005    -3.3629946426152684E-027
   2.8666666666666668E-005    -3.5883765641703269E-027
   2.8866666666666659E-005    -3.0903894041955030E-027
   2.9066666666666664E-005    -1.6791233537309145E-027
   2.9266666666666669E-005     7.0084350529591393E-028
   2.9466666666666660E-005     3.9032366134348248E-027
   2.9666666666666665E-005     7.5342442630464731E-027
   2.9866666666666656E-005     1.0947256580428325E-026
   3.0066666666666661E-005     1.3294871946081868E-026
   3.0266666666666666E-005     1.3647307064460814E-026
   3.0466666666666657E-005     1.1173833577767141E-026
   3.0666666666666662E-005     5.3676003040274333E-027
   3.0866666666666667E-005    -3.7230675278314928E-027
   3.1066666666666658E-005    -1.5308400955264898E-026
   3.1266666666666663E-005    -2.7774725152909354E-026
   3.1466666666666668E-005    -3.8760406375170978E-026
   3.1666666666666659E-005    -4.5426233552036689E-026
   3.1866666666666664E-005    -4.4922851424492262E-026
   3.2066666666666656E-005    -3.5012990021581833E-026
   3.2266666666666660E-005    -1.4756373101945112E-026
   3.2466666666666665E-005     1.4878593805611669E-026
   3.2666666666666657E-005     5.0638345934775437E-026
   3.2866666666666661E-005     8.7000752845585672E-026
   3.3066666666666666E-005     1.1670009676015121E-025
   3.3266666666666658E-005     1.3179275166487534E-025
   3.3466666666666662E-005     1.2518034644989103E-025
   3.3666666666666667E-005     9.2375804740029680E-026
   3.3866666666666659E-005     3.3178240881337645E-026
   3.4066666666666664E-005    -4.7152771318172175E-026
   3.4266666666666668E-005    -1.3763324853451564E-025
   3.4466666666666660E-005    -2.2251280585610708E-025
   3.4666666666666665E-005    -2.8356431710465124E-025
   3.4866666666666656E-005    -3.0352726213767313E-025
   3.5066666666666661E-005    -2.7019886184685558E-025
   3.5266666666666666E-005    -1.8036609264093446E-025
   3.5466666666666657E-005    -4.2582583878027458E-026
   3.5666666666666662E-005     1.2220360348048733E-025
   3.5866666666666667E-005     2.8291617032916080E-025
   3.6066666666666658E-005     4.0373867791439545E-025
   3.6266666666666663E-005     4.5212793394963657E-025
   3.6466666666666668E-005     4.0812590523522116E-025
   3.6666666666666659E-005     2.7290424873890591E-025
   3.6866666666666664E-005     7.4021268121761942E-026
   3.7066666666666669E-005    -1.3506212648943372E-025
   3.7266666666666660E-005    -2.8295372375712675E-025
   3.7466666666666665E-005    -2.9612433911908660E-025
   3.7666666666666656E-005    -1.2089428475619217E-025
   3.7866666666666661E-005     2.5223094451785983E-025
   3.8066666666666666E-005     7.6771426660421140E-025
   3.8266666666666657E-005     1.2946438656770842E-024
   3.8466666666666662E-005     1.6337050640103596E-024
   3.8666666666666667E-005     1.5462768023640107E-024
   3.8866666666666658E-005     8.0650133755793533E-025
   3.9066666666666663E-005    -7.2837869398662850E-025
   3.9266666666666668E-005    -3.0405469472110222E-024
   3.9466666666666659E-005    -5.8840859743314774E-024
   3.9666666666666664E-005    -8.7484333252856005E-024
   3.9866666666666655E-005    -1.0874068625733183E-023
   4.0066666666666660E-005    -1.1336975484366657E-023
   4.0266666666666665E-005    -9.2079931224784447E-024
   4.0466666666666656E-005    -3.7776954343361785E-024
   4.0666666666666661E-005     5.1813584570620182E-024
   4.0866666666666666E-005     1.7162068834956516E-023
   4.1066666666666657E-005     3.0741739643463069E-023
   4.1266666666666662E-005     4.3540227219795704E-023
   4.1466666666666667E-005     5.2377762235819249E-023
   4.1666666666666658E-005     5.3669882666970315E-023
   4.1866666666666663E-005     4.4057823221775201E-023
   4.2066666666666668E-005     2.1221000293888954E-023
   4.2266666666666660E-005    -1.5239150603965937E-023
   4.2466666666666664E-005    -6.3007334971693672E-023
   4.2666666666666656E-005    -1.1655316345588404E-022
   4.2866666666666661E-005    -1.6712388047572667E-022
   4.3066666666666665E-005    -2.0339885981352604E-022
   4.3266666666666657E-005    -2.1289208770924566E-022
   4.3466666666666662E-005    -1.8406389979809157E-022
   4.3666666666666666E-005    -1.0894829336022804E-022
   4.3866666666666658E-005     1.4062850756268222E-023
   4.4066666666666663E-005     1.7777975040305635E-022
   4.4266666666666667E-005     3.6470729080469145E-022
   4.4466666666666659E-005     5.4705620459707584E-022
   4.4666666666666664E-005     6.8874164362678410E-022
   4.4866666666666655E-005     7.4959714807556645E-022
   4.5066666666666660E-005     6.9167512614315253E-022
   4.5266666666666665E-005     4.8707280181990511E-022
   4.5466666666666656E-005     1.2627019087396169E-022
   4.5666666666666661E-005    -3.7442371019679299E-022
   4.5866666666666666E-005    -9.6795708787712665E-022
   4.6066666666666657E-005    -1.5758014187317722E-021
   4.6266666666666662E-005    -2.0927423314023749E-021
   4.6466666666666667E-005    -2.3979202633651199E-021
   4.6666666666666658E-005    -2.3719165967051838E-021
   4.6866666666666663E-005    -1.9185418578183655E-021
   4.7066666666666668E-005    -9.8876973952021428E-022
   4.7266666666666659E-005     3.9682314683770143E-022
   4.7466666666666664E-005     2.1314871206913754E-021
   4.7666666666666655E-005     4.0161433064962985E-021
   4.7866666666666660E-005     5.7676079760765879E-021
   4.8066666666666665E-005     7.0437504218996655E-021
   4.8266666666666656E-005     7.4859041335786153E-021
   4.8466666666666661E-005     6.7759850157851391E-021
   4.8666666666666666E-005     4.7025564060940537E-021
   4.8866666666666657E-005     1.2270234252564304E-021
   4.9066666666666662E-005    -3.4612717122457798E-021
   4.9266666666666667E-005    -8.9134308487011144E-021
   4.9466666666666658E-005    -1.4424604133868305E-020
   4.9666666666666663E-005    -1.9081830380562143E-020
   4.9866666666666655E-005    -2.1860128714484385E-020
   5.0066666666666659E-005    -2.1763884440627206E-020
   5.0266666666666664E-005    -1.8002209117469694E-020
   5.0466666666666656E-005    -1.0178189246420780E-020
   5.0666666666666660E-005     1.5357974115168216E-021
   5.0866666666666665E-005     1.6269788325482941E-020
   5.1066666666666657E-005     3.2409260325375920E-020
   5.1266666666666661E-005     4.7659568624833527E-020
   5.1466666666666666E-005     5.9241569437410737E-020
   5.1666666666666658E-005     6.4221754299228172E-020
   5.1866666666666662E-005     5.9958639388147037E-020
   5.2066666666666667E-005     4.4622739474750253E-020
   5.2266666666666659E-005     1.7723353706384836E-020
   5.2466666666666664E-005    -1.9444021343847413E-020
   5.2666666666666655E-005    -6.3526439246504447E-020
   5.2866666666666660E-005    -1.0911202730933556E-019
   5.3066666666666665E-005    -1.4907230538594901E-019
   5.3266666666666656E-005    -1.7528483257436139E-019
   5.3466666666666661E-005    -1.7971824609445943E-019
   5.3666666666666666E-005    -1.5579573351870132E-019
   5.3866666666666657E-005    -9.9882913037564939E-020
   5.4066666666666662E-005    -1.2682879238447751E-020
   5.4266666666666667E-005     9.9722080893420362E-020
   5.4466666666666658E-005     2.2545297509657479E-019
   5.4666666666666663E-005     3.4727868932714647E-019
   5.4866666666666668E-005     4.4407761458378947E-019
   5.5066666666666659E-005     4.9333927786892853E-019
   5.5266666666666664E-005     4.7455774753339371E-019
   5.5466666666666655E-005     3.7317748681246368E-019
   5.5666666666666660E-005     1.8456765275223929E-019
   5.5866666666666665E-005    -8.2640124933966632E-020
   5.6066666666666656E-005    -4.0458080151861215E-019
   5.6266666666666661E-005    -7.4223789611518022E-019
   5.6466666666666666E-005    -1.0440902040847786E-018
   5.6666666666666657E-005    -1.2515285222621817E-018
   5.6866666666666662E-005    -1.3068277542126696E-018
   5.7066666666666667E-005    -1.1629693894175041E-018
   5.7266666666666658E-005    -7.9411814980083419E-019
   5.7466666666666663E-005    -2.0514744991227074E-019
   5.7666666666666654E-005     5.6162514732745859E-019
   5.7866666666666659E-005     1.4243102320977277E-018
   5.8066666666666664E-005     2.2654021381127135E-018
   5.8266666666666655E-005     2.9426211420922315E-018
   5.8466666666666660E-005     3.3064713457438492E-018
   5.8666666666666665E-005     3.2231692479676908E-018
   5.8866666666666656E-005     2.6003751968786353E-018
   5.9066666666666661E-005     1.4120880101549797E-018
   5.9266666666666666E-005    -2.8164055059028115E-019
   5.9466666666666657E-005    -2.3246431897397975E-018
   5.9666666666666662E-005    -4.4681041045126527E-018
   5.9866666666666667E-005    -6.3900452143441193E-018
   6.0066666666666659E-005    -7.7312138923564692E-018
   6.0266666666666663E-005    -8.1451060500616832E-018
   6.0466666666666655E-005    -7.3570136113117348E-018
   6.0666666666666660E-005    -5.2243799385613852E-018
   6.0866666666666664E-005    -1.7888477397538164E-018
   6.1066666666666656E-005     2.6902984567845173E-018
   6.1266666666666661E-005     7.7307315088964244E-018
   6.1466666666666665E-005     1.2656551730016835E-017
   6.1666666666666657E-005     1.6665179790048516E-017
   6.1866666666666662E-005     1.8928647786200844E-017
   6.2066666666666666E-005     1.8720048576212978E-017
   6.2266666666666658E-005     1.5549944305645804E-017
   6.2466666666666663E-005     9.2928642077926384E-018
   6.2666666666666668E-005     2.8164129237523306E-019
   6.2866666666666659E-005    -1.0651887261801059E-017
   6.3066666666666664E-005    -2.2206903652714214E-017
   6.3266666666666655E-005    -3.2723466442045386E-017
   6.3466666666666660E-005    -4.0370329758324295E-017
   6.3666666666666665E-005    -4.3396159707978411E-017
   6.3866666666666656E-005    -4.0416731406962596E-017
   6.4066666666666661E-005    -3.0699949600766175E-017
   6.4266666666666666E-005    -1.4403764162497695E-017
   6.4466666666666657E-005     7.2787685585069993E-018
   6.4666666666666662E-005     3.2106902335260041E-017
   6.4866666666666667E-005     5.6938151120010890E-017
   6.5066666666666658E-005     7.8038971859913843E-017
   6.5266666666666663E-005     9.1541965643739399E-017
   6.5466666666666654E-005     9.4005648815561705E-017
   6.5666666666666659E-005     8.3009531617616432E-017
   6.5866666666666664E-005     5.7700312624931383E-017
   6.6066666666666655E-005     1.9198139650409602E-017
   6.6266666666666660E-005    -2.9222198713035157E-017
   6.6466666666666665E-005    -8.2240400362798654E-017
   6.6666666666666656E-005    -1.3292248646834656E-016
   6.6866666666666661E-005    -1.7346460761834311E-016
   6.7066666666666666E-005    -1.9618978798032996E-016
   6.7266666666666657E-005    -1.9469162688415672E-016
   6.7466666666666662E-005    -1.6498029248486838E-016
   6.7666666666666667E-005    -1.0646330157724325E-016
   6.7866666666666658E-005    -2.2591623335862235E-017
   6.8066666666666663E-005     7.8975354377134980E-017
   6.8266666666666655E-005     1.8678487849343037E-016
   6.8466666666666659E-005     2.8661567504356090E-016
   6.8666666666666664E-005     3.6305883577520842E-016
   6.8866666666666656E-005     4.0151322834985174E-016
   6.9066666666666660E-005     3.9037392688860559E-016
   6.9266666666666665E-005     3.2313232068403950E-016
   6.9466666666666657E-005     2.0007835425192881E-016
   6.9666666666666661E-005     2.9307565164393741E-017
   6.9866666666666666E-005    -1.7321001652502825E-016
   7.0066666666666658E-005    -3.8464444343913261E-016
   7.0266666666666662E-005    -5.7741912727667267E-016
   7.0466666666666654E-005    -7.2228852393625836E-016
   7.0666666666666659E-005    -7.9209343491713025E-016
   7.0866666666666664E-005    -7.6577592763953207E-016
   7.1066666666666655E-005    -6.3214113657323915E-016
   7.1266666666666660E-005    -3.9282051586473221E-016
   7.1466666666666665E-005    -6.3922590940847236E-017
   7.1666666666666656E-005     3.2403321260371832E-016
   7.1866666666666661E-005     7.2812781641528575E-016
   7.2066666666666666E-005     1.0969980224839844E-015
   7.2266666666666657E-005     1.3764736196741395E-015
   7.2466666666666662E-005     1.5163759865865639E-015
   7.2666666666666667E-005     1.4777332303688835E-015
   7.2866666666666658E-005     1.2395132054914039E-015
   7.3066666666666663E-005     8.0391797993825154E-016
   7.3266666666666654E-005     1.9934860356037907E-016
   7.3466666666666659E-005    -5.1966545053343608E-016
   7.3666666666666664E-005    -1.2759719515466980E-015
   7.3866666666666655E-005    -1.9767375749235356E-015
   7.4066666666666660E-005    -2.5233767807169477E-015
   7.4266666666666665E-005    -2.8235697327691482E-015
   7.4466666666666656E-005    -2.8040769573028256E-015
   7.4666666666666661E-005    -2.4227878430206061E-015
   7.4866666666666666E-005    -1.6783320008263636E-015
   7.5066666666666657E-005    -6.1568943012601782E-016
   7.5266666666666662E-005     6.7345001708329313E-016
   7.5466666666666653E-005     2.0562928106215226E-015