  -3.3333333333333335E-005     0.0000000000000000     
  -3.3133333333333337E-005     0.0000000000000000     
  -3.2933333333333332E-005     0.0000000000000000     
  -3.2733333333333334E-005     0.0000000000000000     
  -3.2533333333333336E-005     0.0000000000000000     
  -3.2333333333333338E-005     0.0000000000000000     
  -3.2133333333333333E-005    -9.9897083622633120E-017
  -3.1933333333333335E-005    -7.1209981271242082E-016
  -3.1733333333333337E-005    -2.2590163437097778E-016
  -3.1533333333333332E-005     2.3647291342187364E-014
  -3.1333333333333334E-005     1.8720473856052209E-013
  -3.1133333333333336E-005     8.9546509610568317E-013
  -3.0933333333333338E-005     3.2146993150827200E-012
  -3.0733333333333333E-005     9.3528369854842548E-012
  -3.0533333333333335E-005     2.2862108293621198E-011
  -3.0333333333333337E-005     4.7700129687923016E-011
  -3.0133333333333335E-005     8.4899769180387646E-011
  -2.9933333333333334E-005     1.2585341640146065E-010
  -2.9733333333333336E-005     1.4279739168036907E-010
  -2.9533333333333334E-005     8.0266944198321274E-011
  -2.9333333333333336E-005    -1.4490584825282931E-010
  -2.9133333333333334E-005    -6.2601258691326693E-010
  -2.8933333333333336E-005    -1.4276289601988100E-009
  -2.8733333333333335E-005    -2.5375068321283928E-009
  -2.8533333333333333E-005    -3.8449411532876204E-009
  -2.8333333333333335E-005    -5.2003080794272977E-009
  -2.8133333333333337E-005    -6.6001908536272085E-009
  -2.7933333333333336E-005    -8.4751423959339264E-009
  -2.7733333333333334E-005    -1.1920976069533130E-008
  -2.7533333333333336E-005    -1.8540598670035366E-008
  -2.7333333333333335E-005    -2.9445359889261664E-008
  -2.7133333333333333E-005    -4.3051556577940081E-008
  -2.6933333333333335E-005    -5.1751269312767526E-008
  -2.6733333333333337E-005    -3.8395276938293352E-008
  -2.6533333333333336E-005     2.5352558135728666E-008
  -2.6333333333333334E-005     1.7578222423116323E-007
  -2.6133333333333336E-005     4.4593112185930324E-007
  -2.5933333333333335E-005     8.4481547510772275E-007
  -2.5733333333333333E-005     1.3290338247076359E-006
  -2.5533333333333335E-005     1.7739094645359289E-006
  -2.5333333333333337E-005     1.9569444241048704E-006
  -2.5133333333333336E-005     1.5700016300829664E-006
  -2.4933333333333334E-005     2.7549632805694800E-007
  -2.4733333333333336E-005    -2.1863348755967890E-006
  -2.4533333333333334E-005    -5.8478543742844593E-006
  -2.4333333333333333E-005    -1.0352050508777425E-005
  -2.4133333333333335E-005    -1.4829082256428755E-005
  -2.3933333333333337E-005    -1.7875190587792619E-005
  -2.3733333333333335E-005    -1.7694425742469247E-005
  -2.3533333333333334E-005    -1.2438110794194045E-005
  -2.3333333333333336E-005    -7.2904149656084402E-007
  -2.3133333333333338E-005     1.7705780722887764E-005
  -2.2933333333333336E-005     4.1433850523397812E-005
  -2.2733333333333335E-005     6.6932177066617840E-005
  -2.2533333333333337E-005     8.8609894748961355E-005
  -2.2333333333333335E-005     9.9383998773358215E-005
  -2.2133333333333334E-005     9.1853776177190313E-005
  -2.1933333333333336E-005     5.9978174377883695E-005
  -2.1733333333333338E-005     1.0043131541727779E-006
  -2.1533333333333336E-005    -8.2737944987408207E-005
  -2.1333333333333335E-005    -1.8263335228094064E-004
  -2.1133333333333337E-005    -2.8360997672249091E-004
  -2.0933333333333335E-005    -3.6531523192075577E-004
  -2.0733333333333334E-005    -4.0473522167781096E-004
  -2.0533333333333336E-005    -3.8006867963848748E-004
  -2.0333333333333337E-005    -2.7536679889344535E-004
  -2.0133333333333336E-005    -8.5194615110000124E-005
  -1.9933333333333334E-005     1.8158401288191698E-004
  -1.9733333333333336E-005     4.9980298081800313E-004
  -1.9533333333333335E-005     8.2851634361849266E-004
  -1.9333333333333333E-005     1.1144661133802281E-003
  -1.9133333333333335E-005     1.2984644040666339E-003
  -1.8933333333333337E-005     1.3241374665728222E-003
  -1.8733333333333336E-005     1.1479740385948989E-003
  -1.8533333333333334E-005     7.4920909157869192E-004
  -1.8333333333333336E-005     1.3785281830506327E-004
  -1.8133333333333335E-005    -6.4080165496409140E-004
  -1.7933333333333337E-005    -1.5065447582018991E-003
  -1.7733333333333335E-005    -2.3502518876215460E-003
  -1.7533333333333337E-005    -3.0454670123739392E-003
  -1.7333333333333336E-005    -3.4645787289160983E-003
  -1.7133333333333334E-005    -3.4977005040405795E-003
  -1.6933333333333336E-005    -3.0716407010489906E-003
  -1.6733333333333335E-005    -2.1659947537473693E-003
  -1.6533333333333337E-005    -8.2346912896627100E-004
  -1.6333333333333335E-005     8.4784644966068691E-004
  -1.6133333333333337E-005     2.6814946012254162E-003
  -1.5933333333333336E-005     4.4688211788790518E-003
  -1.5733333333333334E-005     5.9826956708839947E-003
  -1.5533333333333336E-005     7.0058625422446379E-003
  -1.5333333333333334E-005     7.3600771345961880E-003
  -1.5133333333333336E-005     6.9318671930899524E-003
  -1.4933333333333335E-005     5.6910857069151178E-003
  -1.4733333333333337E-005     3.6994157130647931E-003
  -1.4533333333333335E-005     1.1074387196325136E-003
  -1.4333333333333337E-005    -1.8594271078576233E-003
  -1.4133333333333336E-005    -4.9241935702126838E-003
  -1.3933333333333334E-005    -7.7875657903613013E-003
  -1.3733333333333336E-005    -1.0159273588152910E-002
  -1.3533333333333335E-005    -1.1787467221372904E-002
  -1.3333333333333337E-005    -1.2482752131352285E-002
  -1.3133333333333335E-005    -1.2134500109346595E-002
  -1.2933333333333337E-005    -1.0718388606052509E-002
  -1.2733333333333336E-005    -8.2955187472882729E-003
  -1.2533333333333338E-005    -5.0045325150156377E-003
  -1.2333333333333336E-005    -1.0488905811820754E-003
  -1.2133333333333335E-005     3.3183735448939948E-003
  -1.1933333333333337E-005     7.8103924658996342E-003
  -1.1733333333333335E-005     1.2121406082817070E-002
  -1.1533333333333337E-005     1.5940501095032714E-002
  -1.1333333333333336E-005     1.8964640760548712E-002
  -1.1133333333333337E-005     2.0912101279252582E-002
  -1.0933333333333336E-005     2.1537605347566588E-002
  -1.0733333333333334E-005     2.0650089389121610E-002
  -1.0533333333333336E-005     1.8133172940109542E-002
  -1.0333333333333335E-005     1.3967163465407908E-002
  -1.0133333333333337E-005     8.2500129999789375E-003
  -9.9333333333333354E-006     1.2135288038309518E-003
  -9.7333333333333373E-006    -6.7695547776015280E-003
  -9.5333333333333358E-006    -1.5191869716391627E-002
  -9.3333333333333343E-006    -2.3434213603678606E-002
  -9.1333333333333362E-006    -3.0806007857981248E-002
  -8.9333333333333348E-006    -3.6601890217040613E-002
  -8.7333333333333367E-006    -4.0170018812880397E-002
  -8.5333333333333352E-006    -4.0984946134537723E-002
  -8.3333333333333371E-006    -3.8716080547796156E-002
  -8.1333333333333356E-006    -3.3282057144487676E-002
  -7.9333333333333376E-006    -2.4882252502411793E-002
  -7.7333333333333361E-006    -1.3998954775628803E-002
  -7.5333333333333346E-006    -1.3673617977827445E-003
  -7.3333333333333365E-006     1.2085123331112755E-002
  -7.1333333333333351E-006     2.5324439085158239E-002
  -6.9333333333333370E-006     3.7310633993173192E-002
  -6.7333333333333355E-006     4.7101706130805832E-002
  -6.5333333333333374E-006     5.3947601535674745E-002
  -6.3333333333333359E-006     5.7362426081420254E-002
  -6.1333333333333379E-006     5.7165774376366274E-002
  -5.9333333333333364E-006     5.3488098554996977E-002
  -5.7333333333333349E-006     4.6739987210288131E-002
  -5.5333333333333368E-006     3.7550061420996275E-002
  -5.3333333333333354E-006     2.6680474236392523E-002
  -5.1333333333333373E-006     1.4931980108579566E-002
  -4.9333333333333358E-006     3.0518123080684112E-003
  -4.7333333333333377E-006    -8.3429878511283931E-003
  -4.5333333333333362E-006    -1.8816557793531336E-002
  -4.3333333333333348E-006    -2.8133194198725182E-002
  -4.1333333333333367E-006    -3.6242837724656439E-002
  -3.9333333333333352E-006    -4.3236610133599404E-002
  -3.7333333333333371E-006    -4.9280539661698687E-002
  -3.5333333333333356E-006    -5.4538896963560873E-002
  -3.3333333333333376E-006    -5.9100190198982321E-002
  -3.1333333333333361E-006    -6.2918424797110989E-002
  -2.9333333333333346E-006    -6.5779899799752531E-002
  -2.7333333333333365E-006    -6.7301762948916322E-002
  -2.5333333333333384E-006    -6.6963688942899210E-002
  -2.3333333333333336E-006    -6.4168847710633234E-002
  -2.1333333333333355E-006    -5.8325935609267160E-002
  -1.9333333333333374E-006    -4.8940827023223721E-002
  -1.7333333333333393E-006    -3.5705206373050857E-002
  -1.5333333333333345E-006    -1.8570027407491016E-002
  -1.3333333333333364E-006     2.2057734952300118E-003
  -1.1333333333333383E-006     2.6037332672290879E-002
  -9.3333333333333343E-007     5.2028326029670273E-002
  -7.3333333333333535E-007     7.9015215830576399E-002
  -5.3333333333333726E-007    0.10563524973020083     
  -3.3333333333333918E-007    0.13040981904252333     
  -1.3333333333333432E-007    0.15183395432376387     
   6.6666666666663770E-008    0.16846342760978278     
   2.6666666666666185E-007    0.17899257318731865     
   4.6666666666666672E-007    0.18231860833887142     
   6.6666666666666480E-007    0.17759107917067612     
   8.6666666666666289E-007    0.16424756526552658     
   1.0666666666666610E-006    0.14203896354152923     
   1.2666666666666658E-006    0.11104846226215939     
   1.4666666666666639E-006     7.1708183492850353E-002
   1.6666666666666620E-006     2.4816279586715433E-002
   1.8666666666666669E-006    -2.8445263567169102E-002
   2.0666666666666649E-006    -8.6494419743041784E-002
   2.2666666666666630E-006   -0.14733994399817857     
   2.4666666666666611E-006   -0.20858693791866262     
   2.6666666666666660E-006   -0.26746640957211310     
   2.8666666666666641E-006   -0.32089758949628022     
   3.0666666666666622E-006   -0.36559028985545639     
   3.2666666666666602E-006   -0.39819064731742004     
   3.4666666666666651E-006   -0.41546867846207447     
   3.6666666666666632E-006   -0.41454035561602065     
   3.8666666666666613E-006   -0.39311072222803478     
   4.0666666666666661E-006   -0.34971996094173652     
   4.2666666666666642E-006   -0.28397086846890746     
   4.4666666666666623E-006   -0.19671453738324363     
   4.6666666666666604E-006    -9.0173465253380797E-002
   4.8666666666666652E-006     3.2015584584191126E-002
   5.0666666666666633E-006    0.16484966694398814     
   5.2666666666666614E-006    0.30210189394163800     
   5.4666666666666663E-006    0.43655232988427251     
   5.6666666666666644E-006    0.56029331917519687     
   5.8666666666666624E-006    0.66508840558485682     
   6.0666666666666605E-006    0.74275810997083336     
   6.2666666666666654E-006    0.78556330923350348     
   6.4666666666666635E-006    0.78655797374885961     
   6.6666666666666616E-006    0.73988504148074918     
   6.8666666666666664E-006    0.64099705910221805     
   7.0666666666666645E-006    0.48678920382524626     
   7.2666666666666626E-006    0.27564389280165430     
   7.4666666666666607E-006     7.3935014961485634E-003
   7.6666666666666655E-006   -0.31678341379230801     
   7.8666666666666636E-006   -0.69451138930309209     
   8.0666666666666617E-006    -1.1223892252236118     
   8.2666666666666598E-006    -1.5961609091267925     
   8.4666666666666647E-006    -2.1108665351025282     
   8.6666666666666627E-006    -2.6609639511496606     
   8.8666666666666608E-006    -3.2404153930301893     
   9.0666666666666657E-006    -3.8427468175771016     
   9.2666666666666638E-006    -4.4610933620972277     
   9.4666666666666619E-006    -5.0882437517522234     
   9.6666666666666599E-006    -5.7167125804458978     
   9.8666666666666648E-006    -6.3388473685640836     
   1.0066666666666663E-005    -6.9469896099770843     
   1.0266666666666661E-005    -7.5336859782920600     
   1.0466666666666666E-005    -8.0919488441268115     
   1.0666666666666664E-005    -8.6155470116614339     
   1.0866666666666662E-005    -9.0993005625666630     
   1.1066666666666660E-005    -9.5393515116033374     
   1.1266666666666665E-005    -9.9333810431657721     
   1.1466666666666663E-005    -10.280737752995977     
   1.1666666666666661E-005    -10.582462882049164     
   1.1866666666666666E-005    -10.841196150837261     
   1.2066666666666664E-005    -11.060952660515545     
   1.2266666666666662E-005    -11.246794166511682     
   1.2466666666666660E-005    -11.404403701411502     
   1.2666666666666665E-005    -11.539594791901754     
   1.2866666666666663E-005    -11.657790868395528     
   1.3066666666666661E-005    -11.763510674825906     
   1.3266666666666666E-005    -11.859885813177687     
   1.3466666666666664E-005    -11.948257323437870     
   1.3666666666666662E-005    -12.027851014964462     
   1.3866666666666660E-005    -12.095569499217801     
   1.4066666666666665E-005    -12.145888150392045     
   1.4266666666666663E-005    -12.170868462175633     
   1.4466666666666661E-005    -12.160274964984069     
   1.4666666666666666E-005    -12.101783544105526     
   1.4866666666666664E-005    -11.981273492894434     
   1.5066666666666662E-005    -11.783168120874420     
   1.5266666666666661E-005    -11.490827700050332     
   1.5466666666666665E-005    -11.086951025846243     
   1.5666666666666663E-005    -10.553983580101608     
   1.5866666666666662E-005    -9.8744994115162221     
   1.6066666666666660E-005    -9.0315438628844529     
   1.6266666666666665E-005    -8.0089255421986572     
   1.6466666666666663E-005    -6.7914403099565330     
   1.6666666666666661E-005    -5.3650240184723579     
   1.6866666666666666E-005    -3.7168456718984815     
   1.7066666666666664E-005    -1.8353342142713742     
   1.7266666666666662E-005    0.28982779744193454     
   1.7466666666666660E-005     2.6677302845891573     
   1.7666666666666665E-005     5.3062595684666798     
   1.7866666666666663E-005     8.2120966059191502     
   1.8066666666666661E-005     11.390666883891924     
   1.8266666666666666E-005     14.846046361190059     
   1.8466666666666664E-005     18.580804531973079     
   1.8666666666666662E-005     22.595820291589895     
   1.8866666666666660E-005     26.890055958955745     
   1.9066666666666665E-005     31.460356623712123     
   1.9266666666666663E-005     36.301260398904184     
   1.9466666666666661E-005     41.404873511699982     
   1.9666666666666666E-005     46.760801983281439     
   1.9866666666666664E-005     52.356188860920533     
   2.0066666666666662E-005     58.175805961806034     
   2.0266666666666660E-005     64.202203597904287     
   2.0466666666666665E-005     70.415912076560289     
   2.0666666666666663E-005     76.795617717282994     
   2.0866666666666661E-005     83.318324973242767     
   2.1066666666666659E-005     89.959499648883593     
   2.1266666666666664E-005     96.693041661778409     
   2.1466666666666662E-005     103.49127626766386     
   2.1666666666666660E-005     110.32478590859611     
   2.1866666666666665E-005     117.16225090526282     
   2.2066666666666663E-005     123.97018874020756     
   2.2266666666666661E-005     130.71274038058482     
   2.2466666666666659E-005     137.35149153822189     
   2.2666666666666664E-005     143.84524507057847     
   2.2866666666666662E-005     150.15005879296916     
   2.3066666666666660E-005     156.21919466604686     
   2.3266666666666665E-005     162.00331375644862     
   2.3466666666666663E-005     167.45061339063136     
   2.3666666666666661E-005     172.50716428525314     
   2.3866666666666660E-005     177.11731731354161     
   2.4066666666666664E-005     181.22412642818608     
   2.4266666666666662E-005     184.76987628209520     
   2.4466666666666661E-005     187.69671071360668     
   2.4666666666666665E-005     189.94727500072676     
   2.4866666666666663E-005     191.46555641022459     
   2.5066666666666662E-005     192.19772864469829     
   2.5266666666666660E-005     192.09311216917442     
   2.5466666666666665E-005     191.10523146054015     
   2.5666666666666663E-005     189.19292938341059     
   2.5866666666666661E-005     186.32147335855956     
   2.6066666666666666E-005     182.46369355527855     
   2.6266666666666664E-005     177.60099303672922     
   2.6466666666666662E-005     171.72425265592835     
   2.6666666666666660E-005     164.83454952750242     
   2.6866666666666665E-005     156.94369295862205     
   2.7066666666666663E-005     148.07450959058906     
   2.7266666666666661E-005     138.26083962385718     
   2.7466666666666666E-005     127.54735694317955     
   2.7666666666666664E-005     115.98910534251739     
   2.7866666666666662E-005     103.65088966174332     
   2.8066666666666667E-005     90.606446502165312     
   2.8266666666666658E-005     76.937503642011066     
   2.8466666666666663E-005     62.732747643134104     
   2.8666666666666668E-005     48.086673876440138     
   2.8866666666666659E-005     33.098445743236560     
   2.9066666666666664E-005     17.870690758563455     
   2.9266666666666669E-005     2.5082646832833806     
   2.9466666666666660E-005    -12.882951835101245     
   2.9666666666666665E-005    -28.197238537495380     
   2.9866666666666656E-005    -43.330203870983532     
   3.0066666666666661E-005    -58.179875518696072     
   3.0266666666666666E-005    -72.647744763936771     
   3.0466666666666657E-005    -86.639713907618685     
   3.0666666666666662E-005    -100.06697275994283     
   3.0866666666666667E-005    -112.84679727249819     
   3.1066666666666658E-005    -124.90324426070562     
   3.1266666666666663E-005    -136.16780122260693     
   3.1466666666666668E-005    -146.57997180188531     
   3.1666666666666659E-005    -156.08783337959207     
   3.1866666666666664E-005    -164.64856709267121     
   3.2066666666666656E-005    -172.22895237580752     
   3.2266666666666660E-005    -178.80588506205677     
   3.2466666666666665E-005    -184.36683639162374     
   3.2666666666666657E-005    -188.91018977493445     
   3.2866666666666661E-005    -192.44557023908669     
   3.3066666666666666E-005    -194.99403405761655     
   3.3266666666666658E-005    -196.58802758516970     
   3.3466666666666662E-005    -197.27132722512047     
   3.3666666666666667E-005    -197.09848270850244     
   3.3866666666666659E-005    -196.13450945962597     
   3.4066666666666664E-005    -194.45395278962991     
   3.4266666666666668E-005    -192.13994595075258     
   3.4466666666666660E-005    -189.28317293227252     
   3.4666666666666665E-005    -185.98068511146280     
   3.4866666666666656E-005    -182.33448950733691     
   3.5066666666666661E-005    -178.45028620025872     
   3.5266666666666666E-005    -174.43603044301497     
   3.5466666666666657E-005    -170.40048061024584     
   3.5666666666666662E-005    -166.45175378942321     
   3.5866666666666667E-005    -162.69588309657303     
   3.6066666666666658E-005    -159.23535662328220     
   3.6266666666666663E-005    -156.16759472083953     
   3.6466666666666668E-005    -153.58339512360047     
   3.6666666666666659E-005    -151.56555527313773     
   3.6866666666666664E-005    -150.18732247986603     
   3.7066666666666669E-005    -149.51088940205574     
   3.7266666666666660E-005    -149.58612067779191     
   3.7466666666666665E-005    -150.44913376807176     
   3.7666666666666656E-005    -152.12114053241959     
   3.7866666666666661E-005    -154.60739988405703     
   3.8066666666666666E-005    -157.89629184400218     
   3.8266666666666657E-005    -161.95860381256898     
   3.8466666666666662E-005    -166.74706783494068     
   3.8666666666666667E-005    -172.19610535140629     
   3.8866666666666658E-005    -178.22194168441158     
   3.9066666666666663E-005    -184.72294747597218     
   3.9266666666666668E-005    -191.58039698170660     
   3.9466666666666659E-005    -198.65963404042529     
   3.9666666666666664E-005    -205.81156576869773     
   3.9866666666666655E-005    -212.87457350301733     
   4.0066666666666660E-005    -219.67682192670173     
   4.0266666666666665E-005    -226.03883464898183     
   4.0466666666666656E-005    -231.77645298576198     
   4.0666666666666661E-005    -236.70388149501355     
   4.0866666666666666E-005    -240.63692371606766     
   4.1066666666666657E-005    -243.39621069589560     
   4.1266666666666662E-005    -244.81041904912365     
   4.1466666666666667E-005    -244.71930847553904     
   4.1666666666666658E-005    -242.97664076910684     
   4.1866666666666663E-005    -239.45283683740558     
   4.2066666666666668E-005    -234.03744681987047     
   4.2266666666666660E-005    -226.64134497478153     
   4.2466666666666664E-005    -217.19869852544252     
   4.2666666666666656E-005    -205.66870571185009     
   4.2866666666666661E-005    -192.03707404503479     
   4.3066666666666665E-005    -176.31727817297664     
   4.3266666666666657E-005    -158.55156342149235     
   4.3466666666666662E-005    -138.81156289840280     
   4.3666666666666666E-005    -117.19868331270459     
   4.3866666666666658E-005    -93.843941840949810     
   4.4066666666666663E-005    -68.907421873199638     
   4.4266666666666667E-005    -42.577259415425495     
   4.4466666666666659E-005    -15.067998588260384     
   4.4666666666666664E-005     13.381413642266825     
   4.4866666666666655E-005     42.510183749445723     
   4.5066666666666660E-005     72.038619788849005     
   4.5266666666666665E-005     101.67144855670146     
   4.5466666666666656E-005     131.10132672113545     
   4.5666666666666661E-005     160.01261069440864     
   4.5866666666666666E-005     188.08516522620218     
   4.6066666666666657E-005     214.99826884476673     
   4.6266666666666662E-005     240.43437799615390     
   4.6466666666666667E-005     264.08305029007289     
   4.6666666666666658E-005     285.64464346180046     
   4.6866666666666663E-005     304.83403040764830     
   4.7066666666666668E-005     321.38420418500408     
   4.7266666666666659E-005     335.04979199629435     
   4.7466666666666664E-005     345.61047677688714     
   4.7666666666666655E-005     352.87424915930814     
   4.7866666666666660E-005     356.68046767569155     
   4.8066666666666665E-005     356.90261121974839     
   4.8266666666666656E-005     353.45076494315680     
   4.8466666666666661E-005     346.27374816502532     
   4.8666666666666666E-005     335.36069501028879     
   4.8866666666666657E-005     320.74230207530121     
   4.9066666666666662E-005     302.49151433696073     
   4.9266666666666667E-005     280.72365717858145     
   4.9466666666666658E-005     255.59613616993408     
   4.9666666666666663E-005     227.30767829085090     
   4.9866666666666655E-005     196.09691985987706     
   5.0066666666666659E-005     162.24080328002009     
   5.0266666666666664E-005     126.05228042900544     
   5.0466666666666656E-005     87.877698833668404     
   5.0666666666666660E-005     48.093792643953009     
   5.0866666666666665E-005     7.1041116133421980     
   5.1066666666666657E-005    -34.664824007558401     
   5.1266666666666661E-005    -76.767785942884018     
   5.1466666666666666E-005    -118.74548970689250     
   5.1666666666666658E-005    -160.12957040364847     
   5.1866666666666662E-005    -200.44779696776408     
   5.2066666666666667E-005    -239.22933196645451     
   5.2266666666666659E-005    -276.01014788991426     
   5.2466666666666664E-005    -310.33837112437976     
   5.2666666666666655E-005    -341.77945835497428     
   5.2866666666666660E-005    -369.92113440450998     
   5.3066666666666665E-005    -394.37814503988494     
   5.3266666666666656E-005    -414.79640322484300     
   5.3466666666666661E-005    -430.85704817542558     
   5.3666666666666666E-005    -442.27975205330370     
   5.3866666666666657E-005    -448.82605610348872     
   5.4066666666666662E-005    -450.30194561675131     
   5.4266666666666667E-005    -446.56023850663877     
   5.4466666666666658E-005    -437.50259314721865     
   5.4666666666666663E-005    -423.08126366801031     
   5.4866666666666668E-005    -403.30038946572949     
   5.5066666666666659E-005    -378.21687002975654     
   5.5266666666666664E-005    -347.94113436356918     
   5.5466666666666655E-005    -312.63722300618622     
   5.5666666666666660E-005    -272.52249258733923     
   5.5866666666666665E-005    -227.86704846646791     
   5.6066666666666656E-005    -178.99227602292956     
   5.6266666666666661E-005    -126.26912589581161     
   5.6466666666666666E-005    -70.115536603268879     
   5.6666666666666657E-005    -10.993582698340305     
   5.6866666666666662E-005     50.594351409387713     
   5.7066666666666667E-005     114.10960700634190     
   5.7266666666666658E-005     178.98216791309210     
   5.7466666666666663E-005     244.61594628044327     
   5.7666666666666654E-005     310.39446827116217     
   5.7866666666666659E-005     375.68697247001808     
   5.8066666666666664E-005     439.85467386295602     
   5.8266666666666655E-005     502.25747411576538     
   5.8466666666666660E-005     562.26021534170377     
   5.8666666666666665E-005     619.23941193298151     
   5.8866666666666656E-005     672.58951842354679     
   5.9066666666666661E-005     721.72903591506611     
   5.9266666666666666E-005     766.10618580717642     
   5.9466666666666657E-005     805.20461029723674     
   5.9666666666666662E-005     838.54825239407046     
   5.9866666666666667E-005     865.70602940921367     
   6.0066666666666659E-005     886.29628185751722     
   6.0266666666666663E-005     899.99041940020709     
   6.0466666666666655E-005     906.51651461213123     
   6.0666666666666660E-005     905.66249546565132     
   6.0866666666666664E-005     897.27870244396354     
   6.1066666666666656E-005     881.28029314893536     
   6.1266666666666661E-005     857.64911354832191     
   6.1466666666666665E-005     826.43489708940990     
   6.1666666666666657E-005     787.75627087130738     
   6.1866666666666662E-005     741.80079648707851     
   6.2066666666666666E-005     688.82439869034897     
   6.2266666666666658E-005     629.15035977773505     
   6.2466666666666663E-005     563.16719539933183     
   6.2666666666666668E-005     491.32612894944674     
   6.2866666666666659E-005     414.13760785442656     
   6.3066666666666664E-005     332.16726900200854     
   6.3266666666666655E-005     246.03121205579595     
   6.3466666666666660E-005     156.39077629055794     
   6.3666666666666665E-005     63.946779368935964     
   6.3866666666666656E-005    -30.566510004559156     
   6.4066666666666661E-005    -126.38798112075639     
   6.4266666666666666E-005    -222.73626622793563     
   6.4466666666666657E-005    -318.81661781480665     
   6.4666666666666662E-005    -413.82785000811180     
   6.4866666666666667E-005    -506.96938166844484     
   6.5066666666666658E-005    -597.44816621631026     
   6.5266666666666663E-005    -684.48557953031661     
   6.5466666666666654E-005    -767.32438233395874     
   6.5666666666666659E-005    -845.23515004373360     
   6.5866666666666664E-005    -917.52310601895920     
   6.6066666666666655E-005    -983.53394836804409     
   6.6266666666666660E-005    -1042.6603041612102     
   6.6466666666666665E-005    -1094.3470235539544     
   6.6666666666666656E-005    -1138.0969781057970     
   6.6866666666666661E-005    -1173.4756848890177     
   6.7066666666666666E-005    -1200.1160641334477     
   6.7266666666666657E-005    -1217.7224402370200     
   6.7466666666666662E-005    -1226.0742917543089     
   6.7666666666666667E-005    -1225.0287946883584     
   6.7866666666666658E-005    -1214.5235686615233     
   6.8066666666666663E-005    -1194.5780971357467     
   6.8266666666666655E-005    -1165.2944830686361     
   6.8466666666666659E-005    -1126.8576942064033     
   6.8666666666666664E-005    -1079.5347899475873     
   6.8866666666666656E-005    -1023.6733570516440     
   6.9066666666666660E-005    -959.69936641217441     
   6.9266666666666665E-005    -888.11373357960463     
   6.9466666666666657E-005    -809.48855823539952     
   6.9666666666666661E-005    -724.46282859094708     
   6.9866666666666666E-005    -633.73683763702172     
   7.0066666666666658E-005    -538.06661154554035     
   7.0266666666666662E-005    -438.25734381331705     
   7.0466666666666654E-005    -335.15682588077226     
   7.0666666666666659E-005    -229.64796021621572     
   7.0866666666666664E-005    -122.64120699292383     
   7.1066666666666655E-005    -15.066510407030677     
   7.1266666666666660E-005     92.134979666361446     
   7.1466666666666665E-005     198.01952198207840     
   7.1666666666666656E-005     301.64949145470354     
   7.1866666666666661E-005     402.10225858149903     
   7.2066666666666666E-005     498.47918874970253     
   7.2266666666666657E-005     589.91437231155203     
   7.2466666666666662E-005     675.58354429576207     
   7.2666666666666667E-005     754.71232567067887     
   7.2866666666666658E-005     826.58430187254407     
   7.3066666666666663E-005     890.54830505474024     
   7.3266666666666654E-005     946.02564864416524     
   7.3466666666666659E-005     992.51578816833785     
   7.3666666666666664E-005     1029.6018827241107     
   7.3866666666666655E-005     1056.9550514986811     
   7.4066666666666660E-005     1074.3375795969469     
   7.4266666666666665E-005     1081.6056796530993     
   7.4466666666666656E-005     1078.7106971667929     
   7.4666666666666661E-005     1065.6996480886887     
   7.4866666666666666E-005     1042.7149012964310     
   7.5066666666666657E-005     1009.9928362574351     
   7.5266666666666662E-005     967.86151730094218     
   7.5466666666666653E-005     916.73789831424847     