  -3.3333333333333335E-005     0.0000000000000000     
  -3.3133333333333337E-005     0.0000000000000000     
  -3.2933333333333332E-005     1.3178862447763454E-002
  -3.2733333333333334E-005     6.0066811867635593E-002
  -3.2533333333333336E-005    0.15817439921788681     
  -3.2333333333333338E-005    0.31135486291366826     
  -3.2133333333333333E-005    0.50350424762850299     
  -3.1933333333333335E-005    0.69972399168399946     
  -3.1733333333333337E-005    0.85529521069585313     
  -3.1533333333333332E-005    0.92975154374195046     
  -3.1333333333333334E-005    0.90113894075239875     
  -3.1133333333333336E-005    0.77506825981866034     
  -3.0933333333333338E-005    0.58467654403498681     
  -3.0733333333333333E-005    0.38063539708969663     
  -3.0533333333333335E-005    0.21388377532436784     
  -3.0333333333333337E-005    0.11655635990810541     
  -3.0133333333333335E-005     8.7611344073594069E-002
  -2.9933333333333334E-005     8.8504206758847334E-002
  -2.9733333333333336E-005     5.1220031934874136E-002
  -2.9533333333333334E-005   -0.10297678717812389     
  -2.9333333333333336E-005   -0.43926754845581939     
  -2.9133333333333334E-005   -0.98663086901321284     
  -2.8933333333333336E-005    -1.7237046409758030     
  -2.8733333333333335E-005    -2.5775610273922904     
  -2.8533333333333333E-005    -3.4359648319011438     
  -2.8333333333333335E-005    -4.1697290306114088     
  -2.8133333333333337E-005    -4.6589588549525205     
  -2.7933333333333336E-005    -4.8161615659383763     
  -2.7733333333333334E-005    -4.6006046868697297     
  -2.7533333333333336E-005    -4.0212830652357212     
  -2.7333333333333335E-005    -3.1294414505953201     
  -2.7133333333333333E-005    -2.0044907937709731     
  -2.6933333333333335E-005   -0.73846422293249725     
  -2.6733333333333337E-005    0.57640516740420100     
  -2.6533333333333336E-005     1.8545342507644822     
  -2.6333333333333334E-005     3.0185499330256347     
  -2.6133333333333336E-005     3.9981293019530439     
  -2.5933333333333335E-005     4.7296308949690475     
  -2.5733333333333333E-005     5.1593174573327314     
  -2.5533333333333335E-005     5.2508999300094379     
  -2.5333333333333337E-005     4.9955987429325246     
  -2.5133333333333336E-005     4.4209276526891612     
  -2.4933333333333334E-005     3.5938468834710653     
  -2.4733333333333336E-005     2.6151723011149177     
  -2.4533333333333334E-005     1.6047452445428261     
  -2.4333333333333333E-005    0.68006667665736287     
  -2.4133333333333335E-005    -6.6318788573465293E-002
  -2.3933333333333337E-005   -0.58443087963117513     
  -2.3733333333333335E-005   -0.87422919081244865     
  -2.3533333333333334E-005   -0.98038127927007879     
  -2.3333333333333336E-005   -0.97578385791883093     
  -2.3133333333333338E-005   -0.93861909525676301     
  -2.2933333333333336E-005   -0.92965486380529883     
  -2.2733333333333335E-005   -0.97632816486170615     
  -2.2533333333333337E-005    -1.0678778680162231     
  -2.2333333333333335E-005    -1.1622202648652717     
  -2.2133333333333334E-005    -1.2015721922392779     
  -2.1933333333333336E-005    -1.1312642204419534     
  -2.1733333333333338E-005   -0.91553210919840922     
  -2.1533333333333336E-005   -0.54559718858377670     
  -2.1333333333333335E-005    -3.8240074706025473E-002
  -2.1133333333333337E-005    0.57340321542186423     
  -2.0933333333333335E-005     1.2525968927307800     
  -2.0733333333333334E-005     1.9700289034435761     
  -2.0533333333333336E-005     2.7089712486415567     
  -2.0333333333333337E-005     3.4628925418939569     
  -2.0133333333333336E-005     4.2270756466823602     
  -1.9933333333333334E-005     4.9881980096842966     
  -1.9733333333333336E-005     5.7167154819077934     
  -1.9533333333333335E-005     6.3659737406908992     
  -1.9333333333333333E-005     6.8793766660873263     
  -1.9133333333333335E-005     7.2037693651005004     
  -1.8933333333333337E-005     7.3046015907483888     
  -1.8733333333333336E-005     7.1774405155017273     
  -1.8533333333333334E-005     6.8513531895918725     
  -1.8333333333333336E-005     6.3823421811846881     
  -1.8133333333333335E-005     5.8383939163689442     
  -1.7933333333333337E-005     5.2807521534393409     
  -1.7733333333333335E-005     4.7473972897901593     
  -1.7533333333333337E-005     4.2441637793988374     
  -1.7333333333333336E-005     3.7462476782632668     
  -1.7133333333333334E-005     3.2093660248853841     
  -1.6933333333333336E-005     2.5865042692875848     
  -1.6733333333333335E-005     1.8442994616732016     
  -1.6533333333333337E-005    0.97322013607185021     
  -1.6333333333333335E-005    -1.1862075207930145E-002
  -1.6133333333333337E-005    -1.0807533844682098     
  -1.5933333333333336E-005    -2.2029793330268257     
  -1.5733333333333334E-005    -3.3630915900048874     
  -1.5533333333333336E-005    -4.5700738853038532     
  -1.5333333333333334E-005    -5.8570546601938727     
  -1.5133333333333336E-005    -7.2708321426881781     
  -1.4933333333333335E-005    -8.8545742241864467     
  -1.4733333333333337E-005    -10.629750968101952     
  -1.4533333333333335E-005    -12.583830891826358     
  -1.4333333333333337E-005    -14.668398200017066     
  -1.4133333333333336E-005    -16.808944712463862     
  -1.3933333333333334E-005    -18.923357360289216     
  -1.3733333333333336E-005    -20.943013449222704     
  -1.3533333333333335E-005    -22.829334958547840     
  -1.3333333333333337E-005    -24.580017681405419     
  -1.3133333333333335E-005    -26.222687561344902     
  -1.2933333333333337E-005    -27.797939780645528     
  -1.2733333333333336E-005    -29.337602974066467     
  -1.2533333333333338E-005    -30.845595314030504     
  -1.2333333333333336E-005    -32.288028766510543     
  -1.2133333333333335E-005    -33.595999769665148     
  -1.1933333333333337E-005    -34.680184096786739     
  -1.1733333333333335E-005    -35.452214367374204     
  -1.1533333333333337E-005    -35.845503988487970     
  -1.1333333333333336E-005    -35.828345073368929     
  -1.1133333333333337E-005    -35.405038176146071     
  -1.0933333333333336E-005    -34.604728827184786     
  -1.0733333333333334E-005    -33.462386426814732     
  -1.0533333333333336E-005    -31.998823512882630     
  -1.0333333333333335E-005    -30.207059514421054     
  -1.0133333333333337E-005    -28.050280661807307     
  -9.9333333333333354E-006    -25.471898082119601     
  -9.7333333333333373E-006    -22.414529152595907     
  -9.5333333333333358E-006    -18.840672419636039     
  -9.3333333333333343E-006    -14.747550675996369     
  -9.1333333333333362E-006    -10.170713881400893     
  -8.9333333333333348E-006    -5.1743051718166075     
  -8.7333333333333367E-006    0.16816865537330017     
  -8.5333333333333352E-006     5.7961602606505949     
  -8.3333333333333371E-006     11.679171395999148     
  -8.1333333333333356E-006     17.821727365129263     
  -7.9333333333333376E-006     24.254134781743119     
  -7.7333333333333361E-006     31.011252568513960     
  -7.5333333333333346E-006     38.106259669548351     
  -7.3333333333333365E-006     45.508669592945850     
  -7.1333333333333351E-006     53.134296671734432     
  -6.9333333333333370E-006     60.851362602545464     
  -6.7333333333333355E-006     68.501572399274778     
  -6.5333333333333374E-006     75.929718738017343     
  -6.3333333333333359E-006     83.012314882411147     
  -6.1333333333333379E-006     89.676055219892447     
  -5.9333333333333364E-006     95.899989685426590     
  -5.7333333333333349E-006     101.70058851570005     
  -5.5333333333333368E-006     107.10478899070304     
  -5.3333333333333354E-006     112.12005032867555     
  -5.1333333333333373E-006     116.71104804338073     
  -4.9333333333333358E-006     120.79098341076337     
  -4.7333333333333377E-006     124.22993940931144     
  -4.5333333333333362E-006     126.87729324722847     
  -4.3333333333333348E-006     128.59023028092403     
  -4.1333333333333367E-006     129.25906585130210     
  -3.9333333333333352E-006     128.82085094740651     
  -3.7333333333333371E-006     127.25741728406655     
  -3.5333333333333356E-006     124.57935966155182     
  -3.3333333333333376E-006     120.80288221324537     
  -3.1333333333333361E-006     115.92816393285314     
  -2.9333333333333346E-006     109.92815585501590     
  -2.7333333333333365E-006     102.75178738274963     
  -2.5333333333333384E-006     94.341308000404339     
  -2.3333333333333336E-006     84.657242050981282     
  -2.1333333333333355E-006     73.701976115213256     
  -1.9333333333333374E-006     61.532870511184349     
  -1.7333333333333393E-006     48.259401373653162     
  -1.5333333333333345E-006     34.024682384801906     
  -1.3333333333333364E-006     18.976538017734654     
  -1.1333333333333383E-006     3.2384186377350730     
  -9.3333333333333343E-007    -13.110043807300805     
  -7.3333333333333535E-007    -30.035474414452487     
  -5.3333333333333726E-007    -47.534662973289066     
  -3.3333333333333918E-007    -65.604335484666194     
  -1.3333333333333432E-007    -84.206679987399710     
   6.6666666666663770E-008    -103.24172114226445     
   2.6666666666666185E-007    -122.53595178828846     
   4.6666666666666672E-007    -141.85126409294691     
   6.6666666666666480E-007    -160.91190211333640     
   8.6666666666666289E-007    -179.44093654556482     
   1.0666666666666610E-006    -197.19530662497428     
   1.2666666666666658E-006    -213.98871554038743     
   1.4666666666666639E-006    -229.69606492146886     
   1.6666666666666620E-006    -244.23919504065989     
   1.8666666666666669E-006    -257.56004781727177     
   2.0666666666666649E-006    -269.59130145054365     
   2.2666666666666630E-006    -280.23477572938964     
   2.4666666666666611E-006    -289.35510043773752     
   2.6666666666666660E-006    -296.79038797729226     
   2.8666666666666641E-006    -302.37521496741618     
   3.0666666666666622E-006    -305.96780429588580     
   3.2666666666666602E-006    -307.47071312571995     
   3.4666666666666651E-006    -306.83788121259482     
   3.6666666666666632E-006    -304.06532479628942     
   3.8666666666666613E-006    -299.16893801295629     
   4.0666666666666661E-006    -292.15802399099852     
   4.2666666666666642E-006    -283.01438779473079     
   4.4666666666666623E-006    -271.68547738556464     
   4.6666666666666604E-006    -258.09516313211935     
   4.8666666666666652E-006    -242.16924166145270     
   5.0666666666666633E-006    -223.86761136994471     
   5.2666666666666614E-006    -203.21232167050633     
   5.4666666666666663E-006    -180.30120966553608     
   5.6666666666666644E-006    -155.30270957583500     
   5.8666666666666624E-006    -128.43181834303130     
   6.0666666666666605E-006    -99.915127284006246     
   6.2666666666666654E-006    -69.955843254680545     
   6.4666666666666635E-006    -38.709756000566017     
   6.6666666666666616E-006    -6.2802023641642535     
   6.8666666666666664E-006     27.266609208736298     
   7.0666666666666645E-006     61.871237720041051     
   7.2666666666666626E-006     97.445111835686760     
   7.4666666666666607E-006     133.84102612309573     
   7.6666666666666655E-006     170.83894377660147     
   7.8666666666666636E-006     208.15131825252797     
   8.0666666666666617E-006     245.44494390852518     
   8.2666666666666598E-006     282.37174875778931     
   8.4666666666666647E-006     318.59769466593286     
   8.6666666666666627E-006     353.82056422771916     
   8.8666666666666608E-006     387.77144575483049     
   9.0666666666666657E-006     420.20132340226257     
   9.2666666666666638E-006     450.85835934746336     
   9.4666666666666619E-006     479.46648409819522     
   9.6666666666666599E-006     505.71363343016361     
   9.8666666666666648E-006     529.25532388368742     
   1.0066666666666663E-005     549.73353405366811     
   1.0266666666666661E-005     566.80495480311981     
   1.0466666666666666E-005     580.16923822693116     
   1.0666666666666664E-005     589.58774100324581     
   1.0866666666666662E-005     594.88658339338963     
   1.1066666666666660E-005     595.94281294867528     
   1.1266666666666665E-005     592.65955339800848     
   1.1466666666666663E-005     584.93875847845538     
   1.1666666666666661E-005     572.66211396525159     
   1.1866666666666666E-005     555.68857292776147     
   1.2066666666666664E-005     533.86960785248777     
   1.2266666666666662E-005     507.08134294403226     
   1.2466666666666660E-005     475.26109183864935     
   1.2666666666666665E-005     438.43771090909354     
   1.2866666666666663E-005     396.74702388813603     
   1.3066666666666661E-005     350.42718028648756     
   1.3266666666666666E-005     299.79703602408472     
   1.3466666666666664E-005     245.22467395614268     
   1.3666666666666662E-005     187.09745789596610     
   1.3866666666666660E-005     125.80245266360922     
   1.4066666666666665E-005     61.723399584589870     
   1.4266666666666663E-005    -4.7467220552671758     
   1.4466666666666661E-005    -73.182709064959766     
   1.4666666666666666E-005    -143.10419183623881     
   1.4866666666666664E-005    -213.96158385798896     
   1.5066666666666662E-005    -285.13700446730110     
   1.5266666666666661E-005    -355.96135062891574     
   1.5466666666666665E-005    -425.74197430120489     
   1.5666666666666663E-005    -493.79259721901451     
   1.5866666666666662E-005    -559.45604363488349     
   1.6066666666666660E-005    -622.11308295698086     
   1.6266666666666665E-005    -681.17586986851097     
   1.6466666666666663E-005    -736.07068772420700     
   1.6666666666666661E-005    -786.21788344595200     
   1.6866666666666666E-005    -831.01871754584033     
   1.7066666666666664E-005    -869.85722509982816     
   1.7266666666666662E-005    -902.11886829353284     
   1.7466666666666660E-005    -927.22331294000799     
   1.7666666666666665E-005    -944.66260026837142     
   1.7866666666666663E-005    -954.03438231457619     
   1.8066666666666661E-005    -955.06197382690766     
   1.8266666666666666E-005    -947.59541887063233     
   1.8466666666666664E-005    -931.59543514123732     
   1.8666666666666662E-005    -907.10733878039673     
   1.8866666666666660E-005    -874.23412787725204     
   1.9066666666666665E-005    -833.11781756132541     
   1.9266666666666663E-005    -783.93629712926599     
   1.9466666666666661E-005    -726.91531127069243     
   1.9666666666666666E-005    -662.35047116292810     
   1.9866666666666664E-005    -590.63141352243713     
   2.0066666666666662E-005    -512.25748358083752     
   2.0266666666666660E-005    -427.84013225592963     
   2.0466666666666665E-005    -338.08855172394999     
   2.0666666666666663E-005    -243.78385843641200     
   2.0866666666666661E-005    -145.74890545913209     
   2.1066666666666659E-005    -44.823071192763976     
   2.1266666666666664E-005     58.150796866853511     
   2.1466666666666662E-005     162.32469210428138     
   2.1666666666666660E-005     266.83211501820023     
   2.1866666666666665E-005     370.76977675887338     
   2.2066666666666663E-005     473.18433857570159     
   2.2266666666666661E-005     573.07090207180681     
   2.2466666666666659E-005     669.38772684217554     
   2.2666666666666664E-005     761.08469103024345     
   2.2866666666666662E-005     847.13955181149504     
   2.3066666666666660E-005     926.59246119635804     
   2.3266666666666665E-005     998.57073215053333     
   2.3466666666666663E-005     1062.2980898031226     
   2.3666666666666661E-005     1117.0897427463749     
   2.3866666666666660E-005     1162.3375983766737     
   2.4066666666666664E-005     1197.4949615510782     
   2.4266666666666662E-005     1222.0676075424569     
   2.4466666666666661E-005     1235.6191061847794     
   2.4666666666666665E-005     1237.7879693253585     
   2.4866666666666663E-005     1228.3157186383803     
   2.5066666666666662E-005     1207.0742720019070     
   2.5266666666666660E-005     1174.0865130061864     
   2.5466666666666665E-005     1129.5319706684766     
   2.5666666666666663E-005     1073.7368480903219     
   2.5866666666666661E-005     1007.1508538624892     
   2.6066666666666666E-005     930.31947390366327     
   2.6266666666666664E-005     843.86003289647670     
   2.6466666666666662E-005     748.44868376506179     
   2.6666666666666660E-005     644.82218200744865     
   2.6866666666666665E-005     533.79140296116645     
   2.7066666666666663E-005     416.26001614442953     
   2.7266666666666661E-005     293.23954628886293     
   2.7466666666666666E-005     165.85263202931321     
   2.7666666666666664E-005     35.320270665458338     
   2.7866666666666662E-005    -97.066022044299757     
   2.8066666666666667E-005    -229.98111486491524     
   2.8266666666666658E-005    -362.10354187430420     
   2.8466666666666663E-005    -492.14463368920184     
   2.8666666666666668E-005    -618.86352866325376     
   2.8866666666666659E-005    -741.06760284451127     
   2.9066666666666664E-005    -857.60292498309923     
   2.9266666666666669E-005    -967.34157524086334     
   2.9466666666666660E-005    -1069.1757335134780     
   2.9666666666666665E-005    -1162.0232622122339     
   2.9866666666666656E-005    -1244.8472846932154     
   3.0066666666666661E-005    -1316.6853906361187     
   3.0266666666666666E-005    -1376.6830342620960     
   3.0466666666666657E-005    -1424.1203029216169     
   3.0666666666666662E-005    -1458.4269198105349     
   3.0866666666666667E-005    -1479.1827854244996     
   3.1066666666666658E-005    -1486.1055533473798     
   3.1266666666666663E-005    -1479.0326431815863     
   3.1466666666666668E-005    -1457.9043939916996     
   3.1666666666666659E-005    -1422.7569025626794     
   3.1866666666666664E-005    -1373.7273270460719     
   3.2066666666666656E-005    -1311.0701614097613     
   3.2266666666666660E-005    -1235.1780462574955     
   3.2466666666666665E-005    -1146.6003642024377     
   3.2666666666666657E-005    -1046.0503148735927     
   3.2866666666666661E-005    -934.39716165313439     
   3.3066666666666666E-005    -812.64426227756485     
   3.3266666666666658E-005    -681.89784343808560     
   3.3466666666666662E-005    -543.33476655872471     
   3.3666666666666667E-005    -398.17808201717270     
   3.3866666666666659E-005    -247.68528829944665     
   3.4066666666666664E-005    -93.150453891430743     
   3.4266666666666668E-005     64.084033662157765     
   3.4466666666666660E-005     222.61377032307368     
   3.4666666666666665E-005     380.96543636273827     
   3.4866666666666656E-005     537.60327168433105     
   3.5066666666666661E-005     690.95134581694629     
   3.5266666666666666E-005     839.42764098737882     
   3.5466666666666657E-005     981.48493498167090     
   3.5666666666666662E-005     1115.6475286098976     
   3.5866666666666667E-005     1240.5378318104381     
   3.6066666666666658E-005     1354.8876412162274     
   3.6266666666666663E-005     1457.5364053982639     
   3.6466666666666668E-005     1547.4214253611792     
   3.6666666666666659E-005     1623.5673314589449     
   3.6866666666666664E-005     1685.0833888258230     
   3.7066666666666669E-005     1731.1721722259128     
   3.7266666666666660E-005     1761.1500311720099     
   3.7466666666666665E-005     1774.4741818927073     
   3.7666666666666656E-005     1770.7704092459362     
   3.7866666666666661E-005     1749.8520721467532     
   3.8066666666666666E-005     1711.7275984105679     
   3.8266666666666657E-005     1656.5939606512891     
   3.8466666666666662E-005     1584.8204363310922     
   3.8666666666666667E-005     1496.9291902230900     
   3.8866666666666658E-005     1393.5806001613944     
   3.9066666666666663E-005     1275.5666477312238     
   3.9266666666666668E-005     1143.8155092630759     
   3.9466666666666659E-005     999.40335735620056     
   3.9666666666666664E-005     843.56581731289657     
   3.9866666666666655E-005     677.70348288598939     
   4.0066666666666660E-005     503.37329852835444     
   4.0266666666666665E-005     322.26579001164998     
   4.0466666666666656E-005     136.16928602763628     
   4.0666666666666661E-005    -53.071602154091167     
   4.0866666666666666E-005    -243.59515058504380     
   4.1066666666666657E-005    -433.55162517089644     
   4.1266666666666662E-005    -621.11879655144844     
   4.1466666666666667E-005    -804.50457207092700     
   4.1666666666666658E-005    -981.94112913186450     
   4.1866666666666663E-005    -1151.6790595075515     
   4.2066666666666668E-005    -1311.9884891533477     
   4.2266666666666660E-005    -1461.1723975216764     
   4.2466666666666664E-005    -1597.5926936173073     
   4.2666666666666656E-005    -1719.7047704585866     
   4.2866666666666661E-005    -1826.0958306039670     
   4.3066666666666665E-005    -1915.5163294392819     
   4.3266666666666657E-005    -1986.9012819459103     
   4.3466666666666662E-005    -2039.3800333845809     
   4.3666666666666666E-005    -2072.2735090165461     
   4.3866666666666658E-005    -2085.0880768474458     
   4.4066666666666663E-005    -2077.5092757292914     
   4.4266666666666667E-005    -2049.4022404692050     
   4.4466666666666659E-005    -2000.8205796977950     
   4.4666666666666664E-005    -1932.0208103517459     
   4.4866666666666655E-005    -1843.4771555287796     
   4.5066666666666660E-005    -1735.8918247309512     
   4.5266666666666665E-005    -1610.1933079166877     
   4.5466666666666656E-005    -1467.5220308798259     
   4.5666666666666661E-005    -1309.2050411431414     
   4.5866666666666666E-005    -1136.7237970728224     
   4.6066666666666657E-005    -951.68361856307126     
   4.6266666666666662E-005    -755.78981567846893     
   4.6466666666666667E-005    -550.83455189895869     
   4.6666666666666658E-005    -338.69383805112034     
   4.6866666666666663E-005    -121.33029502710076     
   4.7066666666666668E-005     99.204727230975223     
   4.7266666666666659E-005     320.77643397527373     
   4.7466666666666664E-005     541.18344900075272     
   4.7666666666666655E-005     758.18644688646941     
   4.7866666666666660E-005     969.54614103680626     
   4.8066666666666665E-005     1173.0639134662788     
   4.8266666666666656E-005     1366.6183981799222     
   4.8466666666666661E-005     1548.1939146347604     
   4.8666666666666666E-005     1715.8981920094118     
   4.8866666666666657E-005     1867.9708828039702     
   4.9066666666666662E-005     2002.7889392722500     
   4.9266666666666667E-005     2118.8727467137292     
   4.9466666666666658E-005     2214.8991187016200     
   4.9666666666666663E-005     2289.7205968976400     
   4.9866666666666655E-005     2342.3917659392364     
   5.0066666666666659E-005     2372.1955644420705     
   5.0266666666666664E-005     2378.6640045608856     
   5.0466666666666656E-005     2361.5901688242125     
   5.0666666666666660E-005     2321.0263108776689     
   5.0866666666666665E-005     2257.2726507846346     
   5.1066666666666657E-005     2170.8581990371240     
   5.1266666666666661E-005     2062.5219895774621     
   5.1466666666666666E-005     1933.1980390064139     
   5.1666666666666658E-005     1784.0089177606956     
   5.1866666666666662E-005     1616.2656998550260     
   5.2066666666666667E-005     1431.4722133799676     
   5.2266666666666659E-005     1231.3269783294052     
   5.2466666666666664E-005     1017.7177779317117     
   5.2666666666666655E-005     792.70576164133649     
   5.2866666666666660E-005     558.49866751509796     
   5.3066666666666665E-005     317.41611719886635     
   5.3266666666666656E-005     71.852635958429360     
   5.3466666666666661E-005    -175.75630783791041     
   5.3666666666666666E-005    -422.96161363980633     
   5.3866666666666657E-005    -667.31969571309935     
   5.4066666666666662E-005    -906.40650076605039     
   5.4266666666666667E-005    -1137.8295620782576     
   5.4466666666666658E-005    -1359.2445971240068     
   5.4666666666666663E-005    -1568.3780164887041     
   5.4866666666666668E-005    -1763.0579202786494     
   5.5066666666666659E-005    -1941.2495403158089     
   5.5266666666666664E-005    -2101.0902428441714     
   5.5466666666666655E-005    -2240.9195455025110     
   5.5666666666666660E-005    -2359.2985711801985     
   5.5866666666666665E-005    -2455.0181786088997     
   5.6066666666666656E-005    -2527.0973150114278     
   5.6266666666666661E-005    -2574.7773025367619     
   5.6466666666666666E-005    -2597.5169230880956     
   5.6666666666666657E-005    -2594.9918218847679     
   5.6866666666666662E-005    -2567.1026558590520     
   5.7066666666666667E-005    -2513.9888680761806     
   5.7266666666666658E-005    -2436.0448028974060     
   5.7466666666666663E-005    -2333.9313407208501     
   5.7666666666666654E-005    -2208.5784145263683     
   5.7866666666666659E-005    -2061.1759032882351     
   5.8066666666666664E-005    -1893.1525419828181     
   5.8266666666666655E-005    -1706.1473789662873     
   5.8466666666666660E-005    -1501.9788716505091     
   5.8666666666666665E-005    -1282.6174910932182     
   5.8866666666666656E-005    -1050.1653709815309     
   5.9066666666666661E-005    -806.84321100365059     
   5.9266666666666666E-005    -554.98139556857643     
   5.9466666666666657E-005    -297.01052791811935     
   5.9666666666666662E-005    -35.446723975632338     
   5.9866666666666667E-005     227.13222012018562     
   6.0066666666666659E-005     488.11938360326224     
   6.0266666666666663E-005     744.91699180137357     
   6.0466666666666655E-005     994.97515662924786     
   6.0666666666666660E-005     1235.8255032118618     
   6.0866666666666664E-005     1465.1057173053894     
   6.1066666666666656E-005     1680.5739920223655     
   6.1266666666666661E-005     1880.1166651691744     
   6.1466666666666665E-005     2061.7533207098977     
   6.1666666666666657E-005     2223.6459035790940     
   6.1866666666666662E-005     2364.1162882629105     
   6.2066666666666666E-005     2481.6716559234042     
   6.2266666666666658E-005     2575.0373980479985     
   6.2466666666666663E-005     2643.1896679616730     
   6.2666666666666668E-005     2685.3821878738308     
   6.2866666666666659E-005     2701.1609594878346     
   6.3066666666666664E-005     2690.3629225871846     
   6.3266666666666655E-005     2653.1033055457710     
   6.3466666666666660E-005     2589.7546877882023     
   6.3666666666666665E-005     2500.9237352791624     
   6.3866666666666656E-005     2387.4353053864506     
   6.4066666666666661E-005     2250.3253681376291     
   6.4266666666666666E-005     2090.8419652474436     
   6.4466666666666657E-005     1910.4529069301757     
   6.4666666666666662E-005     1710.8503058004389     
   6.4866666666666667E-005     1493.9473733808436     
   6.5066666666666658E-005     1261.8623907868946     
   6.5266666666666663E-005     1016.8902275120986     
   6.5466666666666654E-005     761.46329293257475     
   6.5666666666666659E-005     498.11056649005172     
   6.5866666666666664E-005     229.42001819712982     
   6.6066666666666655E-005    -41.989505617379621     
   6.6266666666666660E-005    -313.48595583251563     
   6.6466666666666665E-005    -582.43317374349067     
   6.6666666666666656E-005    -846.19873181607386     
   6.6866666666666661E-005    -1102.1653572017542     
   6.7066666666666666E-005    -1347.7530044107787     
   6.7266666666666657E-005    -1580.4524420135699     
   6.7466666666666662E-005    -1797.8673700177792     
   6.7666666666666667E-005    -1997.7590219379383     
   6.7866666666666658E-005    -2178.0863314767112     
   6.8066666666666663E-005    -2337.0335718755246     
   6.8266666666666655E-005    -2473.0225484831021     
   6.8466666666666659E-005    -2584.7117909665453     
   6.8666666666666664E-005    -2670.9884481635645     
   6.8866666666666656E-005    -2730.9580185941099     
   6.9066666666666660E-005    -2763.9444812545671     
   6.9266666666666665E-005    -2769.4985391297328     
   6.9466666666666657E-005    -2747.4202668082885     
   6.9666666666666661E-005    -2697.7849077227938     
   6.9866666666666666E-005    -2620.9681501785926     
   7.0066666666666658E-005    -2517.6595169049747     
   7.0266666666666662E-005    -2388.8589646649284     
   7.0466666666666654E-005    -2235.8557040221203     
   7.0666666666666659E-005    -2060.1943568607871     
   7.0866666666666664E-005    -1863.6334600963805     
   7.1066666666666655E-005    -1648.1083988570990     
   7.1266666666666660E-005    -1415.7040691448251     
   7.1466666666666665E-005    -1168.6413029704199     
   7.1666666666666656E-005    -909.27411158844711     
   7.1866666666666661E-005    -640.09146493493006     
   7.2066666666666666E-005    -363.71491035452652     
   7.2266666666666657E-005    -82.884429092156068     
   7.2466666666666662E-005     199.57138796989739     
   7.2666666666666667E-005     480.77894090017264     
   7.2866666666666658E-005     757.87155243634209     
   7.3066666666666663E-005     1028.0399588872497     
   7.3266666666666654E-005     1288.5735482333926     
   7.3466666666666659E-005     1536.8872738937330     
   7.3666666666666664E-005     1770.5327006562366     
   7.3866666666666655E-005     1987.1997891738956     
   7.4066666666666660E-005     2184.7168544075207     
   7.4266666666666665E-005     2361.0575045098126     
   7.4466666666666656E-005     2514.3599550938234     
   7.4666666666666661E-005     2642.9597265982584     
   7.4866666666666666E-005     2745.4321215513728     
   7.5066666666666657E-005     2820.6339344835833     
   7.5266666666666662E-005     2867.7373603031429     
   7.5466666666666653E-005     2886.2444430205651     