  -3.3333333333333335E-005     0.0000000000000000     
  -3.3133333333333337E-005     0.0000000000000000     
  -3.2933333333333332E-005     0.0000000000000000     
  -3.2733333333333334E-005     0.0000000000000000     
  -3.2533333333333336E-005     0.0000000000000000     
  -3.2333333333333338E-005     0.0000000000000000     
  -3.2133333333333333E-005     0.0000000000000000     
  -3.1933333333333335E-005     0.0000000000000000     
  -3.1733333333333337E-005     0.0000000000000000     
  -3.1533333333333332E-005     0.0000000000000000     
  -3.1333333333333334E-005     0.0000000000000000     
  -3.1133333333333336E-005     1.7350334739496247E-030
  -3.0933333333333338E-005    -3.7473987803728949E-029
  -3.0733333333333333E-005     7.7578688848758235E-028
  -3.0533333333333335E-005     3.1579388943307247E-026
  -3.0333333333333337E-005     4.3475297047419947E-025
  -3.0133333333333335E-005     3.7363325959605011E-024
  -2.9933333333333334E-005     2.3551204840106459E-023
  -2.9733333333333336E-005     1.1717289212381412E-022
  -2.9533333333333334E-005     4.7855237291928887E-022
  -2.9333333333333336E-005     1.6374733619058243E-021
  -2.9133333333333334E-005     4.7202719625418073E-021
  -2.8933333333333336E-005     1.1313078783146412E-020
  -2.8733333333333335E-005     2.1366685065919814E-020
  -2.8533333333333333E-005     2.5570881966639296E-020
  -2.8333333333333335E-005    -1.3473883324722368E-020
  -2.8133333333333337E-005    -1.9559706649197465E-019
  -2.7933333333333336E-005    -7.2434020311897715E-019
  -2.7733333333333334E-005    -1.9102993060320934E-018
  -2.7533333333333336E-005    -4.0238737187699989E-018
  -2.7333333333333335E-005    -6.8011687130399483E-018
  -2.7133333333333333E-005    -8.3779026458238691E-018
  -2.6933333333333335E-005    -3.6045156001592761E-018
  -2.6733333333333337E-005     1.7700295896710112E-017
  -2.6533333333333336E-005     7.0803827007709097E-017
  -2.6333333333333334E-005     1.7102926261312675E-016
  -2.6133333333333336E-005     3.1902111556349863E-016
  -2.5933333333333335E-005     4.7273185887623633E-016
  -2.5733333333333333E-005     5.0858544969391268E-016
  -2.5533333333333335E-005     1.8766617191041650E-016
  -2.5333333333333337E-005    -8.3696308266260980E-016
  -2.5133333333333336E-005    -2.9155798670644943E-015
  -2.4933333333333334E-005    -6.1400430181211176E-015
  -2.4733333333333336E-005    -9.9037774228374749E-015
  -2.4533333333333334E-005    -1.2368663511861258E-014
  -2.4333333333333333E-005    -1.0105284533336725E-014
  -2.4133333333333335E-005     1.6102374098409861E-015
  -2.3933333333333337E-005     2.7219713531799975E-014
  -2.3733333333333335E-005     6.7531385081379043E-014
  -2.3533333333333334E-005     1.1471851765977504E-013
  -2.3333333333333336E-005     1.4705240588454110E-013
  -2.3133333333333338E-005     1.2653690657327703E-013
  -2.2933333333333336E-005     4.3405197452520732E-015
  -2.2733333333333335E-005    -2.6055563761844456E-013
  -2.2533333333333337E-005    -6.6635993363745465E-013
  -2.2333333333333335E-005    -1.1205978353805503E-012
  -2.2133333333333334E-005    -1.3942398127456864E-012
  -2.1933333333333336E-005    -1.1070279413413803E-012
  -2.1733333333333338E-005     2.1484922376992315E-013
  -2.1533333333333336E-005     2.9669204228842779E-012
  -2.1333333333333335E-005     7.1601493538101280E-012
  -2.1133333333333337E-005     1.2012425868229709E-011
  -2.0933333333333335E-005     1.5553844309441349E-011
  -2.0733333333333334E-005     1.4461407429747088E-011
  -2.0533333333333336E-005     4.4179942521098258E-012
  -2.0333333333333337E-005    -1.8706725447335733E-011
  -2.0133333333333336E-005    -5.6692915740946009E-011
  -1.9933333333333334E-005    -1.0598874857089756E-010
  -1.9733333333333336E-005    -1.5458263207206012E-010
  -1.9533333333333335E-005    -1.8000465478426070E-010
  -1.9333333333333333E-005    -1.5023263477086736E-010
  -1.9133333333333335E-005    -2.9383305006636730E-011
  -1.8933333333333337E-005     2.1054420938568213E-010
  -1.8733333333333336E-005     5.7218045106842455E-010
  -1.8533333333333334E-005     1.0123950664779879E-009
  -1.8333333333333336E-005     1.4249529793763064E-009
  -1.8133333333333335E-005     1.6349787901452373E-009
  -1.7933333333333337E-005     1.4152274088786058E-009
  -1.7733333333333335E-005     5.3239087909342923E-010
  -1.7533333333333337E-005    -1.1742336878443128E-009
  -1.7333333333333336E-005    -3.6896435127604463E-009
  -1.7133333333333334E-005    -6.7168442836895078E-009
  -1.6933333333333336E-005    -9.6019547055838655E-009
  -1.6733333333333335E-005    -1.1333905020246222E-008
  -1.6533333333333337E-005    -1.0660446991379020E-008
  -1.6333333333333335E-005    -6.3459357113679791E-009
  -1.6133333333333337E-005     2.4364994301827914E-009
  -1.5933333333333336E-005     1.5632372074973047E-008
  -1.5733333333333334E-005     3.1858462247551488E-008
  -1.5533333333333336E-005     4.8128759410859174E-008
  -1.5333333333333334E-005     5.9917749982225491E-008
  -1.5133333333333336E-005     6.1698126224950942E-008
  -1.4933333333333335E-005     4.8010502118070310E-008
  -1.4733333333333337E-005     1.4993258835398086E-008
  -1.4533333333333335E-005    -3.7860106392235405E-008
  -1.4333333333333337E-005    -1.0610616914989942E-007
  -1.4133333333333336E-005    -1.7941663122184900E-007
  -1.3933333333333334E-005    -2.4181024246119663E-007
  -1.3733333333333336E-005    -2.7343282709944984E-007
  -1.3533333333333335E-005    -2.5399535706008192E-007
  -1.3333333333333337E-005    -1.6758740636754562E-007
  -1.3133333333333335E-005    -8.1358826390783810E-009
  -1.2933333333333337E-005     2.1562301347647352E-007
  -1.2733333333333336E-005     4.7703045586326113E-007
  -1.2533333333333338E-005     7.3159119554342251E-007
  -1.2333333333333336E-005     9.2122993495870346E-007
  -1.2133333333333335E-005     9.8297798477230317E-007
  -1.1933333333333337E-005     8.6138294209379914E-007
  -1.1733333333333335E-005     5.2287521915039134E-007
  -1.1533333333333337E-005    -3.0593280782913716E-008
  -1.1333333333333336E-005    -7.5185606588012888E-007
  -1.1133333333333337E-005    -1.5459303147572446E-006
  -1.0933333333333336E-005    -2.2768553575626780E-006
  -1.0733333333333334E-005    -2.7848171509720975E-006
  -1.0533333333333336E-005    -2.9123770006635045E-006
  -1.0333333333333335E-005    -2.5364129953883127E-006
  -1.0133333333333337E-005    -1.6004348138582692E-006
  -9.9333333333333354E-006    -1.4073356723621185E-007
  -9.7333333333333373E-006     1.7002275503067452E-006
  -9.5333333333333358E-006     3.6784438013333741E-006
  -9.3333333333333343E-006     5.4736077076653017E-006
  -9.1333333333333362E-006     6.7338307896709403E-006
  -8.9333333333333348E-006     7.1345924522171881E-006
  -8.7333333333333367E-006     6.4429017544045412E-006
  -8.5333333333333352E-006     4.5751234304277839E-006
  -8.3333333333333371E-006     1.6363267198705758E-006
  -8.1333333333333356E-006    -2.0691757444339279E-006
  -7.9333333333333376E-006    -6.0623017795934797E-006
  -7.7333333333333361E-006    -9.7488758376432032E-006
  -7.5333333333333346E-006    -1.2507835191087904E-005
  -7.3333333333333365E-006    -1.3794886594365659E-005
  -7.1333333333333351E-006    -1.3243941257754670E-005
  -6.9333333333333370E-006    -1.0747059623818856E-005
  -6.7333333333333355E-006    -6.4957880393332592E-006
  -6.5333333333333374E-006    -9.7252983082625947E-007
  -6.3333333333333359E-006     5.1106642224991337E-006
  -6.1333333333333379E-006     1.0918433681283684E-005
  -5.9333333333333364E-006     1.5626581391358250E-005
  -5.7333333333333349E-006     1.8560800503830427E-005
  -5.5333333333333368E-006     1.9313186542574058E-005
  -5.3333333333333354E-006     1.7812788525224050E-005
  -5.1333333333333373E-006     1.4334287080668364E-005
  -4.9333333333333358E-006     9.4407668584921526E-006
  -4.7333333333333377E-006     3.8700911818826334E-006
  -4.5333333333333362E-006    -1.6130546474357567E-006
  -4.3333333333333348E-006    -6.3687202860326046E-006
  -4.1333333333333367E-006    -1.0003534264749788E-005
  -3.9333333333333352E-006    -1.2434234112333747E-005
  -3.7333333333333371E-006    -1.3875658759463959E-005
  -3.5333333333333356E-006    -1.4752413856964009E-005
  -3.3333333333333376E-006    -1.5551316072701521E-005
  -3.1333333333333361E-006    -1.6647388075064202E-005
  -2.9333333333333346E-006    -1.8145667486800803E-005
  -2.7333333333333365E-006    -1.9781700661082429E-005
  -2.5333333333333384E-006    -2.0914106824778315E-005
  -2.3333333333333336E-006    -2.0624151906375968E-005
  -2.1333333333333355E-006    -1.7913234643733892E-005
  -1.9333333333333374E-006    -1.1964190002371154E-005
  -1.7333333333333393E-006    -2.4123813235513694E-006
  -1.5333333333333345E-006     1.0437446759738691E-005
  -1.3333333333333364E-006     2.5508960678119507E-005
  -1.1333333333333383E-006     4.1009087369967713E-005
  -9.3333333333333343E-007     5.4652271364437537E-005
  -7.3333333333333535E-007     6.4029816988609421E-005
  -5.3333333333333726E-007     6.7064020090133787E-005
  -3.3333333333333918E-007     6.2459989789347874E-005
  -1.3333333333333432E-007     5.0057058328140846E-005
   6.6666666666663770E-008     3.0991438643958885E-005
   2.6666666666666185E-007     7.6119202082470621E-006
   4.6666666666666672E-007    -1.6862658368167745E-005
   6.6666666666666480E-007    -3.8900959220458587E-005
   8.6666666666666289E-007    -5.5336529590935789E-005
   1.0666666666666610E-006    -6.4032889633644231E-005
   1.2666666666666658E-006    -6.4391581051475747E-005
   1.4666666666666639E-006    -5.7575757316793190E-005
   1.6666666666666620E-006    -4.6368536848199583E-005
   1.8666666666666669E-006    -3.4655273250160176E-005
   2.0666666666666649E-006    -2.6598567235993109E-005
   2.2666666666666630E-006    -2.5649465015960293E-005
   2.4666666666666611E-006    -3.3590772168675553E-005
   2.6666666666666660E-006    -4.9825292960425929E-005
   2.8666666666666641E-006    -7.1095813005838876E-005
   3.0666666666666622E-006    -9.1755325163372686E-005
   3.2666666666666602E-006    -1.0460510015267481E-004
   3.4666666666666651E-006    -1.0220224193631066E-004
   3.6666666666666632E-006    -7.8429589098299836E-005
   3.8666666666666613E-006    -3.0042290004814726E-005
   4.0666666666666661E-006     4.2123266027941629E-005
   4.2666666666666642E-006     1.3256118556060156E-004
   4.4666666666666623E-006     2.3131973225352405E-004
   4.6666666666666604E-006     3.2508931176299251E-004
   4.8666666666666652E-006     3.9904425955476650E-004
   5.0666666666666633E-006     4.3917135145427175E-004
   5.2666666666666614E-006     4.3469996814687244E-004
   5.4666666666666663E-006     3.8019529210658539E-004
   5.6666666666666644E-006     2.7690360088929123E-004
   5.8666666666666624E-006     1.3304817288732333E-004
   6.0666666666666605E-006    -3.7049724915987146E-005
   6.2666666666666654E-006    -2.1493697838475948E-004
   6.4666666666666635E-006    -3.8078363970591833E-004
   6.6666666666666616E-006    -5.1646140366666126E-004
   6.8666666666666664E-006    -6.0839286890937330E-004
   7.0666666666666645E-006    -6.4963256284663630E-004
   7.2666666666666626E-006    -6.4076109673203688E-004
   7.4666666666666607E-006    -5.8938165351141939E-004
   7.6666666666666655E-006    -5.0826936378084214E-004
   7.8666666666666636E-006    -4.1249076335289950E-004
   8.0666666666666617E-006    -3.1603109952660965E-004
   8.2666666666666598E-006    -2.2859435186703146E-004
   8.4666666666666647E-006    -1.5324665077909511E-004
   8.6666666666666627E-006    -8.5447914250088081E-005
   8.8666666666666608E-006    -1.3776008515483496E-005
   9.0666666666666657E-006     7.7666802550142484E-005
   9.2666666666666638E-006     2.0550854530038563E-004
   9.4666666666666619E-006     3.8265698342536858E-004
   9.6666666666666599E-006     6.1396505783373439E-004
   9.8666666666666648E-006     8.9287697553934681E-004
   1.0066666666666663E-005     1.1998067209543709E-003
   1.0266666666666661E-005     1.5027374728872433E-003
   1.0466666666666666E-005     1.7601643836097725E-003
   1.0666666666666664E-005     1.9260926975754175E-003
   1.0866666666666662E-005     1.9564239345216355E-003
   1.1066666666666660E-005     1.8157805566475127E-003
   1.1266666666666665E-005     1.4837011213369661E-003
   1.1466666666666663E-005     9.5918931998857616E-004
   1.1666666666666661E-005     2.6284246234435107E-004
   1.1866666666666666E-005    -5.6384733058604955E-004
   1.2066666666666664E-005    -1.4619723293163580E-003
   1.2266666666666662E-005    -2.3609845270982383E-003
   1.2466666666666660E-005    -3.1859235682669077E-003
   1.2666666666666665E-005    -3.8650451557793184E-003
   1.2866666666666663E-005    -4.3367796658278553E-003
   1.3066666666666661E-005    -4.5551120197511764E-003
   1.3266666666666666E-005    -4.4927904506296551E-003
   1.3466666666666664E-005    -4.1421841449394347E-003
   1.3666666666666662E-005    -3.5140192063282997E-003
   1.3866666666666660E-005    -2.6345776147504718E-003
   1.4066666666666665E-005    -1.5421346964031896E-003
   1.4266666666666663E-005    -2.8346701086044696E-004
   1.4466666666666661E-005     1.0889040166265599E-003
   1.4666666666666666E-005     2.5183379617178575E-003
   1.4866666666666664E-005     3.9445598248514634E-003
   1.5066666666666662E-005     5.3033464387133820E-003
   1.5266666666666661E-005     6.5260581262248235E-003
   1.5466666666666665E-005     7.5397928850748060E-003
   1.5666666666666663E-005     8.2689001169079408E-003
   1.5866666666666662E-005     8.6383681280406185E-003
   1.6066666666666660E-005     8.5792144363489170E-003
   1.6266666666666665E-005     8.0355779219239282E-003
   1.6466666666666663E-005     6.9727445934130760E-003
   1.6666666666666661E-005     5.3850195319019613E-003
   1.6866666666666666E-005     3.3021697312561504E-003
   1.7066666666666664E-005     7.9322278425695636E-004
   1.7266666666666662E-005    -2.0333308720337142E-003
   1.7466666666666660E-005    -5.0334285584239342E-003
   1.7666666666666665E-005    -8.0353602484558168E-003
   1.7866666666666663E-005    -1.0851078212721046E-002
   1.8066666666666661E-005    -1.3289765254895355E-002
   1.8266666666666666E-005    -1.5172219645803602E-002
   1.8466666666666664E-005    -1.6344509718145356E-002
   1.8666666666666662E-005    -1.6689522300628739E-002
   1.8866666666666660E-005    -1.6135378588391619E-002
   1.9066666666666665E-005    -1.4660177516875438E-002
   1.9266666666666663E-005    -1.2293055449270765E-002
   1.9466666666666661E-005    -9.1120343316413912E-003
   1.9666666666666666E-005    -5.2394029248757894E-003
   1.9866666666666664E-005    -8.3554192082979867E-004
   2.0066666666666662E-005     3.9080290549112322E-003
   2.0266666666666660E-005     8.7758572523591750E-003
   2.0466666666666665E-005     1.3535827762615048E-002
   2.0666666666666663E-005     1.7946695635272666E-002
   2.0866666666666661E-005     2.1766312426049667E-002
   2.1066666666666659E-005     2.4761051519588947E-002
   2.1266666666666664E-005     2.6716830557476826E-002
   2.1466666666666662E-005     2.7451733900584710E-002
   2.1666666666666660E-005     2.6829837530300611E-002
   2.1866666666666665E-005     2.4775207752453662E-002
   2.2066666666666663E-005     2.1284640453179793E-002
   2.2266666666666661E-005     1.6437367211976771E-002
   2.2466666666666659E-005     1.0399933780729675E-002
   2.2666666666666664E-005     3.4247355620884044E-003
   2.2866666666666662E-005    -4.1587440793119821E-003
   2.3066666666666660E-005    -1.1960122707533660E-002
   2.3266666666666665E-005    -1.9550940650941383E-002
   2.3466666666666663E-005    -2.6492406336234398E-002
   2.3666666666666661E-005    -3.2365609539287757E-002
   2.3866666666666660E-005    -3.6801341245949110E-002
   2.4066666666666664E-005    -3.9506570829381957E-002
   2.4266666666666662E-005    -4.0284996545847621E-002
   2.4466666666666661E-005    -3.9049846132689268E-002
   2.4666666666666665E-005    -3.5827990156723090E-002
   2.4866666666666663E-005    -3.0755567997252670E-002
   2.5066666666666662E-005    -2.4066246625347756E-002
   2.5266666666666660E-005    -1.6073992639275125E-002
   2.5466666666666665E-005    -7.1526391020376775E-003
   2.5666666666666663E-005     2.2855224988493246E-003
   2.5866666666666661E-005     1.1810235111964161E-002
   2.6066666666666666E-005     2.0991637757707852E-002
   2.6266666666666664E-005     2.9415990483588339E-002
   2.6466666666666662E-005     3.6699073944841419E-002
   2.6666666666666660E-005     4.2497902465428915E-002
   2.6866666666666665E-005     4.6521771151025675E-002
   2.7066666666666663E-005     4.8543402256129263E-002
   2.7266666666666661E-005     4.8410481237740263E-002
   2.7466666666666666E-005     4.6057238238255582E-002
   2.7666666666666664E-005     4.1515119033021047E-002
   2.7866666666666662E-005     3.4920826916426458E-002
   2.8066666666666667E-005     2.6519880430724320E-002
   2.8266666666666658E-005     1.6663794244803878E-002
   2.8466666666666663E-005     5.7994782239308255E-003
   2.8666666666666668E-005    -5.5497409552178016E-003
   2.8866666666666659E-005    -1.6811017263571568E-002
   2.9066666666666664E-005    -2.7395241103865788E-002
   2.9266666666666669E-005    -3.6734114114186506E-002
   2.9466666666666660E-005    -4.4317746589129743E-002
   2.9666666666666665E-005    -4.9729238312189131E-002
   2.9866666666666656E-005    -5.2672924059019424E-002
   3.0066666666666661E-005    -5.2993568748459501E-002
   3.0266666666666666E-005    -5.0684951495933675E-002
   3.0466666666666657E-005    -4.5887364497106266E-002
   3.0666666666666662E-005    -3.8875022504385612E-002
   3.0866666666666667E-005    -3.0035230935806845E-002
   3.1066666666666658E-005    -1.9842049310143571E-002
   3.1266666666666663E-005    -8.8272763490450830E-003
   3.1466666666666668E-005     2.4485902454947500E-003
   3.1666666666666659E-005     1.3423434111371368E-002
   3.1866666666666664E-005     2.3557443784408477E-002
   3.2066666666666656E-005     3.2353807140202785E-002
   3.2266666666666660E-005     3.9376576713128920E-002
   3.2466666666666665E-005     4.4266685632006794E-002
   3.2666666666666657E-005     4.6756980490960061E-002
   3.2866666666666661E-005     4.6686714931633788E-002
   3.3066666666666666E-005     4.4015169854078620E-002
   3.3266666666666658E-005     3.8833175929847495E-002
   3.3466666666666662E-005     3.1370608566597992E-002
   3.3666666666666667E-005     2.1997418565008690E-002
   3.3866666666666659E-005     1.1215889005234373E-002
   3.4066666666666664E-005    -3.5766211061072882E-004
   3.4266666666666668E-005    -1.2022361175280188E-002
   3.4466666666666660E-005    -2.3032693380397165E-002
   3.4666666666666665E-005    -3.2646490627339146E-002
   3.4866666666666656E-005    -4.0177364270004234E-002
   3.5066666666666661E-005    -4.5046746407856025E-002
   3.5266666666666666E-005    -4.6830591142651312E-002
   3.5466666666666657E-005    -4.5295768345692163E-002
   3.5666666666666662E-005    -4.0422426648110778E-002
   3.5866666666666667E-005    -3.2409829916804953E-002
   3.6066666666666658E-005    -2.1665143455954605E-002
   3.6266666666666663E-005    -8.7765020514083952E-003
   3.6466666666666668E-005     5.5266519735305691E-003
   3.6666666666666659E-005     2.0421722240785110E-002
   3.6866666666666664E-005     3.5044773033134045E-002
   3.7066666666666669E-005     4.8541232204406717E-002
   3.7266666666666660E-005     6.0111416566788901E-002
   3.7466666666666665E-005     6.9048163420394354E-002
   3.7666666666666656E-005     7.4765083182286418E-002
   3.7866666666666661E-005     7.6815775985697970E-002
   3.8066666666666666E-005     7.4905213317787905E-002
   3.8266666666666657E-005     6.8895577011881565E-002
   3.8466666666666662E-005     5.8808622010652893E-002
   3.8666666666666667E-005     4.4826519328695622E-002
   3.8866666666666658E-005     2.7292008985874146E-002
   3.9066666666666663E-005     6.7076316405373891E-003
   3.9266666666666668E-005    -1.6267209056795427E-002
   3.9466666666666659E-005    -4.0823532203717754E-002
   3.9666666666666664E-005    -6.6016656719356845E-002
   3.9866666666666655E-005    -9.0788824621124795E-002
   4.0066666666666660E-005   -0.11400167060471969     
   4.0266666666666665E-005   -0.13447848692594855     
   4.0466666666666656E-005   -0.15105479142433398     
   4.0666666666666661E-005   -0.16263433957108342     
   4.0866666666666666E-005   -0.16824680620252214     
   4.1066666666666657E-005   -0.16710296208355779     
   4.1266666666666662E-005   -0.15864322763278985     
   4.1466666666666667E-005   -0.14257608401588964     
   4.1666666666666658E-005   -0.11890426135554805     
   4.1866666666666663E-005    -8.7937197825780231E-002
   4.2066666666666668E-005    -5.0290274630916752E-002
   4.2266666666666660E-005    -6.8719332451233350E-003
   4.2466666666666664E-005     4.1139314297478885E-002
   4.2666666666666656E-005     9.2325604037529013E-002
   4.2866666666666661E-005    0.14506548900499999     
   4.3066666666666665E-005    0.19757276173380209     
   4.3266666666666657E-005    0.24793638332526580     
   4.3466666666666662E-005    0.29416024030958210     
   4.3666666666666666E-005    0.33420197377550970     
   4.3866666666666658E-005    0.36601051085710168     
   4.4066666666666663E-005    0.38756211796602175     
   4.4266666666666667E-005    0.39689495571167938     
   4.4466666666666659E-005    0.39214187322497585     
   4.4666666666666664E-005    0.37156164815036347     
   4.4866666666666655E-005    0.33356800669398851     
   4.5066666666666660E-005    0.27675622658994148     
   4.5266666666666665E-005    0.19992752994082136     
   4.5466666666666656E-005    0.10211103770198979     
   4.5666666666666661E-005    -1.7416042980429369E-002
   4.5866666666666666E-005   -0.15910917839251226     
   4.6066666666666657E-005   -0.32313733974703607     
   4.6266666666666662E-005   -0.50936346518990272     
   4.6466666666666667E-005   -0.71732350446583926     
   4.6666666666666658E-005   -0.94620637334665059     
   4.6866666666666663E-005    -1.1948349245490824     
   4.7066666666666668E-005    -1.4616531699134412     
   4.7266666666666659E-005    -1.7447224943784314     
   4.7466666666666664E-005    -2.0417322990856350     
   4.7666666666666655E-005    -2.3500289017090137     
   4.7866666666666660E-005    -2.6666671292862127     
   4.8066666666666665E-005    -2.9884835849631317     
   4.8266666666666656E-005    -3.3121912726249469     
   4.8466666666666661E-005    -3.6344912829846034     
   4.8666666666666666E-005    -3.9521937312600279     
   4.8866666666666657E-005    -4.2623387886604638     
   4.9066666666666662E-005    -4.5623071915303148     
   4.9266666666666667E-005    -4.8499108994312010     
   4.9466666666666658E-005    -5.1234562605651579     
   4.9666666666666663E-005    -5.3817681936927286     
   4.9866666666666655E-005    -5.6241810706065340     
   5.0066666666666659E-005    -5.8504860336243008     
   5.0266666666666664E-005    -6.0608497128853500     
   5.0466666666666656E-005    -6.2557004920665555     
   5.0666666666666660E-005    -6.4356000960063140     
   5.0866666666666665E-005    -6.6011040540668677     
   5.1066666666666657E-005    -6.7526239448106002     
   5.1266666666666661E-005    -6.8902982309143743     
   5.1466666666666666E-005    -7.0138807557991614     
   5.1666666666666658E-005    -7.1226486951582997     
   5.1866666666666662E-005    -7.2153335521424466     
   5.2066666666666667E-005    -7.2900751712540508     
   5.2266666666666659E-005    -7.3443944250072803     
   5.2466666666666664E-005    -7.3751819041134006     
   5.2666666666666655E-005    -7.3787052321092075     
   5.2866666666666660E-005    -7.3506201474928226     
   5.3066666666666665E-005    -7.2859954206897770     
   5.3266666666666656E-005    -7.1793462127768981     
   5.3466666666666661E-005    -7.0246735430273262     
   5.3666666666666666E-005    -6.8155197222738941     
   5.3866666666666657E-005    -6.5450310849227069     
   5.4066666666666662E-005    -6.2060404751159552     
   5.4266666666666667E-005    -5.7911556033320863     
   5.4466666666666658E-005    -5.2928644721079481     
   5.4666666666666663E-005    -4.7036475309738721     
   5.4866666666666668E-005    -4.0160925508237257     
   5.5066666666666659E-005    -3.2230099900321343     
   5.5266666666666664E-005    -2.3175414593426327     
   5.5466666666666655E-005    -1.2932576433208118     
   5.5666666666666660E-005   -0.14424488869243213     
   5.5866666666666665E-005     1.1348248060682016     
   5.6066666666666656E-005     2.5486364738032155     
   5.6266666666666661E-005     4.1011855150985586     
   5.6466666666666666E-005     5.7957419846230831     
   5.6666666666666657E-005     7.6348197393679431     
   5.6866666666666662E-005     9.6201495873504754     
   5.7066666666666667E-005     11.752643551113316     
   5.7266666666666658E-005     14.032363122208533     
   5.7466666666666663E-005     16.458475308442537     
   5.7666666666666654E-005     19.029199357367670     
   5.7866666666666659E-005     21.741743857393583     
   5.8066666666666664E-005     24.592238970461636     
   5.8266666666666655E-005     27.575646767319213     
   5.8466666666666660E-005     30.685680281676348     
   5.8666666666666665E-005     33.914704062027340     
   5.8866666666666656E-005     37.253630002029624     
   5.9066666666666661E-005     40.691831598526775     
   5.9266666666666666E-005     44.217044625009059     
   5.9466666666666657E-005     47.815281840469986     
   5.9666666666666662E-005     51.470763762643159     
   5.9866666666666667E-005     55.165857855309412     
   6.0066666666666659E-005     58.881053189695308     
   6.0266666666666663E-005     62.594960933794113     
   6.0466666666666655E-005     66.284339962353656     
   6.0666666666666660E-005     69.924175867904523     
   6.0866666666666664E-005     73.487801963357498     
   6.1066666666666656E-005     76.947070302575924     
   6.1266666666666661E-005     80.272562710212739     
   6.1466666666666665E-005     83.433849359530114     
   6.1666666666666657E-005     86.399804157976661     
   6.1866666666666662E-005     89.138912567174813     
   6.2066666666666666E-005     91.619655067667068     
   6.2266666666666658E-005     93.810875692188162     
   6.2466666666666663E-005     95.682140706070271     
   6.2666666666666668E-005     97.204143274513655     
   6.2866666666666659E-005     98.349056647656624     
   6.3066666666666664E-005     99.090882097061012     
   6.3266666666666655E-005     99.405818380867345     
   6.3466666666666660E-005     99.272567094156301     
   6.3666666666666665E-005     98.672682964525862     
   6.3866666666666656E-005     97.590860551972980     
   6.4066666666666661E-005     96.015268082010607     
   6.4266666666666666E-005     93.937842796897854     
   6.4466666666666657E-005     91.354593261508413     
   6.4666666666666662E-005     88.265875607872502     
   6.4866666666666667E-005     84.676693312179808     
   6.5066666666666658E-005     80.596918827459135     
   6.5266666666666663E-005     76.041528865002761     
   6.5466666666666654E-005     71.030765837182244     
   6.5666666666666659E-005     65.590232246912962     
   6.5866666666666664E-005     59.750956731542701     
   6.6066666666666655E-005     53.549317897030072     
   6.6266666666666660E-005     47.026926667868622     
   6.6466666666666665E-005     40.230410642307511     
   6.6666666666666656E-005     33.211079471976817     
   6.6866666666666661E-005     26.024538338778278     
   6.7066666666666666E-005     18.730204679102187     
   6.7266666666666657E-005     11.390745792617475     
   6.7466666666666662E-005     4.0714713920457086     
   6.7666666666666667E-005    -3.1603357619205994     
   6.7866666666666658E-005    -10.236145230080130     
   6.8066666666666663E-005    -17.086905606944327     
   6.8266666666666655E-005    -23.643822401269823     
   6.8466666666666659E-005    -29.839167644995776     
   6.8666666666666664E-005    -35.607074674570271     
   6.8866666666666656E-005    -40.884347786653237     
   6.9066666666666660E-005    -45.611289272562196     
   6.9266666666666665E-005    -49.732465989718264     
   6.9466666666666657E-005    -53.197507281542585     
   6.9666666666666661E-005    -55.961823110379655     
   6.9866666666666666E-005    -57.987316281693865     
   7.0066666666666658E-005    -59.242991874575651     
   7.0266666666666662E-005    -59.705556816594083     
   7.0466666666666654E-005    -59.359904755688987     
   7.0666666666666659E-005    -58.199552830029738     
   7.0866666666666664E-005    -56.226982498116470     
   7.1066666666666655E-005    -53.453894636225783     
   7.1266666666666660E-005    -49.901379143669317     
   7.1466666666666665E-005    -45.599990455550063     
   7.1666666666666656E-005    -40.589723240476133     
   7.1866666666666661E-005    -34.919893695318407     
   7.2066666666666666E-005    -28.648939040795156     
   7.2266666666666657E-005    -21.844067516320916     
   7.2466666666666662E-005    -14.580864664641354     
   7.2666666666666667E-005    -6.9427146485137712     
   7.2866666666666658E-005    0.97980085170455311     
   7.3066666666666663E-005     9.0896807250703802     
   7.3266666666666654E-005     17.284346733562074     
   7.3466666666666659E-005     25.456598784502631     
   7.3666666666666664E-005     33.495729352261215     
   7.3866666666666655E-005     41.288595121371884     
   7.4066666666666660E-005     48.720898077488343     
   7.4266666666666665E-005     55.678459068938722     
   7.4466666666666656E-005     62.048586046140713     
   7.4666666666666661E-005     67.721485373281780     
   7.4866666666666666E-005     72.591684023935457     
   7.5066666666666657E-005     76.559462483158526     
   7.5266666666666662E-005     79.532347719362164     
   7.5466666666666653E-005     81.426510845159271     