  -3.3333333333333335E-005     0.0000000000000000     
  -3.3133333333333337E-005     0.0000000000000000     
  -3.2933333333333332E-005     0.0000000000000000     
  -3.2733333333333334E-005     0.0000000000000000     
  -3.2533333333333336E-005     0.0000000000000000     
  -3.2333333333333338E-005     0.0000000000000000     
  -3.2133333333333333E-005     0.0000000000000000     
  -3.1933333333333335E-005     0.0000000000000000     
  -3.1733333333333337E-005     0.0000000000000000     
  -3.1533333333333332E-005     0.0000000000000000     
  -3.1333333333333334E-005    -4.5958200490473348E-031
  -3.1133333333333336E-005    -4.6374360383861099E-031
  -3.0933333333333338E-005     2.8365858376820436E-028
  -3.0733333333333333E-005     5.2877540076597566E-027
  -3.0533333333333335E-005     5.1870446400671387E-026
  -3.0333333333333337E-005     3.4674204775856576E-025
  -3.0133333333333335E-005     1.7410219900844704E-024
  -2.9933333333333334E-005     6.8458502193488722E-024
  -2.9733333333333336E-005     2.1150946774040867E-023
  -2.9533333333333334E-005     4.8395818017536970E-023
  -2.9333333333333336E-005     5.7855119591538584E-023
  -2.9133333333333334E-005    -1.3870325400049832E-022
  -2.8933333333333336E-005    -1.2350732596629357E-021
  -2.8733333333333335E-005    -5.2247013399521284E-021
  -2.8533333333333333E-005    -1.6860884394345559E-020
  -2.8333333333333335E-005    -4.5649000088467591E-020
  -2.8133333333333337E-005    -1.0703068834334322E-019
  -2.7933333333333336E-005    -2.1869115774586890E-019
  -2.7733333333333334E-005    -3.8321841643541545E-019
  -2.7533333333333336E-005    -5.4239929034700983E-019
  -2.7333333333333335E-005    -4.8481006395229766E-019
  -2.7133333333333333E-005     3.0459172449403391E-019
  -2.6933333333333335E-005     2.8322053434105216E-018
  -2.6733333333333337E-005     8.7253570730097416E-018
  -2.6533333333333336E-005     2.0077608278472621E-017
  -2.6333333333333334E-005     3.8607530793298539E-017
  -2.6133333333333336E-005     6.3567668110190792E-017
  -2.5933333333333335E-005     8.7835096542231127E-017
  -2.5733333333333333E-005     9.1999920249458630E-017
  -2.5533333333333335E-005     3.7340981331673804E-017
  -2.5333333333333337E-005    -1.3940851535920545E-016
  -2.5133333333333336E-005    -5.2365435793554031E-016
  -2.4933333333333334E-005    -1.2037263969127629E-015
  -2.4733333333333336E-005    -2.2234602471712079E-015
  -2.4533333333333334E-005    -3.4965586087682426E-015
  -2.4333333333333333E-005    -4.6810724558381029E-015
  -2.4133333333333335E-005    -5.0310581411898915E-015
  -2.3933333333333337E-005    -3.2731676445318181E-015
  -2.3733333333333335E-005     2.4039388436185598E-015
  -2.3533333333333334E-005     1.4119424801166050E-014
  -2.3333333333333336E-005     3.3679945373796854E-014
  -2.3133333333333338E-005     6.1443775718013367E-014
  -2.2933333333333336E-005     9.4644719576463000E-014
  -2.2733333333333335E-005     1.2535350703373548E-013
  -2.2533333333333337E-005     1.3856296655237063E-013
  -2.2333333333333335E-005     1.1126267608474539E-013
  -2.2133333333333334E-005     1.3728897481331242E-014
  -2.1933333333333336E-005    -1.8555596907421776E-013
  -2.1733333333333338E-005    -5.1012335617010656E-013
  -2.1533333333333336E-005    -9.6041225137715599E-013
  -2.1333333333333335E-005    -1.4943665311602231E-012
  -2.1133333333333337E-005    -2.0069881171546025E-012
  -2.0933333333333335E-005    -2.3147946742329264E-012
  -2.0733333333333334E-005    -2.1537273009807810E-012
  -2.0533333333333336E-005    -1.2006496292118235E-012
  -2.0333333333333337E-005     8.7195054949294924E-013
  -2.0133333333333336E-005     4.3022430337629799E-012
  -1.9933333333333334E-005     9.1083561100474551E-012
  -1.9733333333333336E-005     1.4934677913343825E-011
  -1.9533333333333335E-005     2.0904006136293570E-011
  -1.9333333333333333E-005     2.5519659412101565E-011
  -1.9133333333333335E-005     2.6673196129509161E-011
  -1.8933333333333337E-005     2.1816279356856834E-011
  -1.8733333333333336E-005     8.3442663762971665E-012
  -1.8533333333333334E-005    -1.5789685525242900E-011
  -1.8333333333333336E-005    -5.1258892060596039E-011
  -1.8133333333333335E-005    -9.6438441262034601E-011
  -1.7933333333333337E-005    -1.4653553210805644E-010
  -1.7733333333333335E-005    -1.9300435555183092E-010
  -1.7533333333333337E-005    -2.2351675893550242E-010
  -1.7333333333333336E-005    -2.2275865085989449E-010
  -1.7133333333333334E-005    -1.7426005759892979E-010
  -1.6933333333333336E-005    -6.3334087144649633E-011
  -1.6733333333333335E-005     1.1900313496058426E-010
  -1.6533333333333337E-005     3.7151689502996100E-010
  -1.6333333333333335E-005     6.7830712094549991E-010
  -1.6133333333333337E-005     1.0053483981270323E-009
  -1.5933333333333336E-005     1.2991020163160900E-009
  -1.5733333333333334E-005     1.4883068481291729E-009
  -1.5533333333333336E-005     1.4898743431603412E-009
  -1.5333333333333334E-005     1.2193950999219189E-009
  -1.5133333333333336E-005     6.0610434460897727E-010
  -1.4933333333333335E-005    -3.8871051370517987E-010
  -1.4733333333333337E-005    -1.7518633644891982E-009
  -1.4533333333333335E-005    -3.3999660970112217E-009
  -1.4333333333333337E-005    -5.1664519302150878E-009
  -1.4133333333333336E-005    -6.7981341747234355E-009
  -1.3933333333333334E-005    -7.9653736279569996E-009
  -1.3733333333333336E-005    -8.2890403105508858E-009
  -1.3533333333333335E-005    -7.3857417752959221E-009
  -1.3333333333333337E-005    -4.9302077284574600E-009
  -1.3133333333333335E-005    -7.3045916150137661E-010
  -1.2933333333333337E-005     5.1923026237023078E-009
  -1.2733333333333336E-005     1.2530741684171656E-008
  -1.2533333333333338E-005     2.0639890784523116E-008
  -1.2333333333333336E-005     2.8523068441858567E-008
  -1.2133333333333335E-005     3.4870307176318361E-008
  -1.1933333333333337E-005     3.8160755110751005E-008
  -1.1733333333333335E-005     3.6833605161853769E-008
  -1.1533333333333337E-005     2.9522144385862204E-008
  -1.1333333333333336E-005     1.5333175687674341E-008
  -1.1133333333333337E-005    -5.8593175613042280E-009
  -1.0933333333333336E-005    -3.3149718620778845E-008
  -1.0733333333333334E-005    -6.4417738966286693E-008
  -1.0533333333333336E-005    -9.6281644535286859E-008
  -1.0333333333333335E-005    -1.2423657106773464E-007
  -1.0133333333333337E-005    -1.4301061461735937E-007
  -9.9333333333333354E-006    -1.4714495478758934E-007
  -9.7333333333333373E-006    -1.3176919699914023E-007
  -9.5333333333333358E-006    -9.3502999026376761E-008
  -9.3333333333333343E-006    -3.1375552326723576E-008
  -9.1333333333333362E-006     5.2377452043071577E-008
  -8.9333333333333348E-006     1.5179654720821339E-007
  -8.7333333333333367E-006     2.5711373108355216E-007
  -8.5333333333333352E-006     3.5522121554539158E-007
  -8.3333333333333371E-006     4.3075684824264056E-007
  -8.1333333333333356E-006     4.6778648022732297E-007
  -7.9333333333333376E-006     4.5196551405730154E-007
  -7.7333333333333361E-006     3.7296061774324302E-007
  -7.5333333333333346E-006     2.2682406579032117E-007
  -7.3333333333333365E-006     1.7955431903809539E-008
  -7.1333333333333351E-006    -2.3972757295166187E-007
  -6.9333333333333370E-006    -5.2274372249396959E-007
  -6.7333333333333355E-006    -7.9935824071035936E-007
  -6.5333333333333374E-006    -1.0323193183661298E-006
  -6.3333333333333359E-006    -1.1828932818866387E-006
  -6.1333333333333379E-006    -1.2158554314063627E-006
  -5.9333333333333364E-006    -1.1048938902110284E-006
  -5.7333333333333349E-006    -8.3773087125681256E-007
  -5.5333333333333368E-006    -4.2019193134155997E-007
  -5.3333333333333354E-006     1.2151703742201886E-007
  -5.1333333333333373E-006     7.4092736806003276E-007
  -4.9333333333333358E-006     1.3741701878277298E-006
  -4.7333333333333377E-006     1.9456022600475975E-006
  -4.5333333333333362E-006     2.3758273914855486E-006
  -4.3333333333333348E-006     2.5913651184884866E-006
  -4.1333333333333367E-006     2.5348898021751462E-006
  -3.9333333333333352E-006     2.1747487894393428E-006
  -3.7333333333333371E-006     1.5124034712034172E-006
  -3.5333333333333356E-006     5.8655738840077219E-007
  -3.3333333333333376E-006    -5.2696727986502212E-007
  -3.1333333333333361E-006    -1.7200801225834727E-006
  -2.9333333333333346E-006    -2.8619060763231381E-006
  -2.7333333333333365E-006    -3.8121932964734414E-006
  -2.5333333333333384E-006    -4.4373554385142341E-006
  -2.3333333333333336E-006    -4.6274028253199772E-006
  -2.1333333333333355E-006    -4.3117417905838860E-006
  -1.9333333333333374E-006    -3.4717918570020875E-006
  -1.7333333333333393E-006    -2.1485956984214166E-006
  -1.5333333333333345E-006    -4.4406625813934995E-007
  -1.3333333333333364E-006     1.4848142740659475E-006
  -1.1333333333333383E-006     3.4387407241204165E-006
  -9.3333333333333343E-007     5.1948554434640608E-006
  -7.3333333333333535E-007     6.5298657696747869E-006
  -5.3333333333333726E-007     7.2452617471656061E-006
  -3.3333333333333918E-007     7.1920098295787614E-006
  -1.3333333333333432E-007     6.2920337521818051E-006
   6.6666666666663770E-008     4.5539871326263201E-006
   2.6666666666666185E-007     2.0812778328729521E-006
   4.6666666666666672E-007    -9.2903064435649384E-007
   6.6666666666666480E-007    -4.1970240006603008E-006
   8.6666666666666289E-007    -7.3801751297572872E-006
   1.0666666666666610E-006    -1.0101891402444321E-005
   1.2666666666666658E-006    -1.1986492249178024E-005
   1.4666666666666639E-006    -1.2698072823348149E-005
   1.6666666666666620E-006    -1.1980208713058508E-005
   1.8666666666666669E-006    -9.6931114967408173E-006
   2.0666666666666649E-006    -5.8446815282990518E-006
   2.2666666666666630E-006    -6.1192827674580499E-007
   2.4666666666666611E-006     5.6505088814849754E-006
   2.6666666666666660E-006     1.2417501064340836E-005
   2.8666666666666641E-006     1.9018208690158250E-005
   3.0666666666666622E-006     2.4679329975174923E-005
   3.2666666666666602E-006     2.8586167538457805E-005
   3.4666666666666651E-006     2.9959151115855278E-005
   3.6666666666666632E-006     2.8141400310850200E-005
   3.8666666666666613E-006     2.2690893363880791E-005
   4.0666666666666661E-006     1.3468869416913771E-005
   4.2666666666666642E-006     7.1458567903738310E-007
   4.4666666666666623E-006    -1.4904235863213795E-005
   4.6666666666666604E-006    -3.2275802826943541E-005
   4.8666666666666652E-006    -4.9872520226929548E-005
   5.0666666666666633E-006    -6.5829436120036470E-005
   5.2666666666666614E-006    -7.8074961689648676E-005
   5.4666666666666663E-006    -8.4510631526215222E-005
   5.6666666666666644E-006    -8.3230473394300744E-005
   5.8666666666666624E-006    -7.2764165143112465E-005
   6.0666666666666605E-006    -5.2322143424080085E-005
   6.2666666666666654E-006    -2.2016174611074979E-005
   6.4666666666666635E-006     1.6973687808146784E-005
   6.6666666666666616E-006     6.2314653400783146E-005
   6.8666666666666664E-006     1.1054455464597036E-004
   7.0666666666666645E-006     1.5722115826474355E-004
   7.2666666666666626E-006     1.9720495161731067E-004
   7.4666666666666607E-006     2.2506970227297686E-004
   7.6666666666666655E-006     2.3561966267340813E-004
   7.8666666666666636E-006     2.2447695174696814E-004
   8.0666666666666617E-006     1.8868838189614210E-004
   8.2666666666666598E-006     1.2728990900859934E-004
   8.4666666666666647E-006     4.1761071165427293E-005
   8.6666666666666627E-006    -6.3698241604607210E-005
   8.8666666666666608E-006    -1.8212779317411081E-004
   9.0666666666666657E-006    -3.0404790058011905E-004
   9.2666666666666638E-006    -4.1800177668140732E-004
   9.4666666666666619E-006    -5.1139158099046270E-004
   9.6666666666666599E-006    -5.7156721082693754E-004
   9.8666666666666648E-006    -5.8709485827498128E-004
   1.0066666666666663E-005    -5.4910086634496567E-004
   1.0266666666666661E-005    -4.5256396048267257E-004
   1.0466666666666666E-005    -2.9741484968142425E-004
   1.0666666666666664E-005    -8.9301696357425218E-005
   1.0866666666666662E-005     1.6010562134897985E-004
   1.1066666666666660E-005     4.3336996689368536E-004
   1.1266666666666665E-005     7.0815347444869235E-004
   1.1466666666666663E-005     9.5869434818614339E-004
   1.1666666666666661E-005     1.1578292198706035E-003
   1.1866666666666666E-005     1.2794323128717828E-003
   1.2066666666666664E-005     1.3010837215183648E-003
   1.2266666666666662E-005     1.2067314599791686E-003
   1.2466666666666660E-005     9.8908302726793572E-004
   1.2666666666666665E-005     6.5145713079182727E-004
   1.2866666666666663E-005     2.0884547082916226E-004
   1.3066666666666661E-005    -3.1201545870664544E-004
   1.3266666666666666E-005    -8.7368892129175086E-004
   1.3466666666666664E-005    -1.4302312998536995E-003
   1.3666666666666662E-005    -1.9304556928346267E-003
   1.3866666666666660E-005    -2.3220766857677310E-003
   1.4066666666666665E-005    -2.5564390740358280E-003
   1.4266666666666663E-005    -2.5934465185649897E-003
   1.4466666666666661E-005    -2.4062437770374003E-003
   1.4666666666666666E-005    -1.9851856164248946E-003
   1.4866666666666664E-005    -1.3406422402881661E-003
   1.5066666666666662E-005    -5.0425719599721600E-004
   1.5266666666666661E-005     4.7161946112086209E-004
   1.5466666666666665E-005     1.5164568308421913E-003
   1.5666666666666663E-005     2.5459913881972444E-003
   1.5866666666666662E-005     3.4683792449648446E-003
   1.6066666666666660E-005     4.1916545669959861E-003
   1.6266666666666665E-005     4.6319392292933220E-003
   1.6466666666666663E-005     4.7217267214274255E-003
   1.6666666666666661E-005     4.4174936656010150E-003
   1.6866666666666666E-005     3.7058870840813007E-003
   1.7066666666666664E-005     2.6077950105132565E-003
   1.7266666666666662E-005     1.1797430280214899E-003
   1.7466666666666660E-005    -4.8775307031608851E-004
   1.7666666666666665E-005    -2.2749993843197373E-003
   1.7866666666666663E-005    -4.0409473006651035E-003
   1.8066666666666661E-005    -5.6335905527551584E-003
   1.8266666666666666E-005    -6.9022271289044951E-003
   1.8466666666666664E-005    -7.7106512674381712E-003
   1.8666666666666662E-005    -7.9501776318509493E-003
   1.8866666666666660E-005    -7.5513308016592236E-003
   1.9066666666666665E-005    -6.4930516149168940E-003
   1.9266666666666663E-005    -4.8084159247633986E-003
   1.9466666666666661E-005    -2.5860875762544451E-003
   1.9666666666666666E-005     3.2944063700114982E-005
   1.9866666666666664E-005     2.8634029488602900E-003
   2.0066666666666662E-005     5.6881795848266834E-003
   2.0266666666666660E-005     8.2744167463708381E-003
   2.0466666666666665E-005     1.0392066675618185E-002
   2.0666666666666663E-005     1.1833468076888211E-002
   2.0866666666666661E-005     1.2432295094318885E-002
   2.1066666666666659E-005     1.2080197826968744E-002
   2.1266666666666664E-005     1.0739548743362984E-002
   2.1466666666666662E-005     8.4509678692042851E-003
   2.1666666666666660E-005     5.3346903992430028E-003
   2.1866666666666665E-005     1.5853208161222773E-003
   2.2066666666666663E-005    -2.5399086073069508E-003
   2.2266666666666661E-005    -6.7386949898972188E-003
   2.2466666666666659E-005    -1.0685821040310840E-002
   2.2666666666666664E-005    -1.4058237214698791E-002
   2.2866666666666662E-005    -1.6561090032951281E-002
   2.3066666666666660E-005    -1.7952556993973023E-002
   2.3266666666666665E-005    -1.8065382288129993E-002
   2.3466666666666663E-005    -1.6823230183600692E-002
   2.3666666666666661E-005    -1.4250349262136079E-002
   2.3866666666666660E-005    -1.0473578687209977E-002
   2.4066666666666664E-005    -5.7163334850685796E-003
   2.4266666666666662E-005    -2.8487441589242842E-004
   2.4466666666666661E-005     5.4522057733135372E-003
   2.4666666666666665E-005     1.1089776196285534E-002
   2.4866666666666663E-005     1.6215301199910215E-002
   2.5066666666666662E-005     2.0439093891270799E-002
   2.5266666666666660E-005     2.3423387739581324E-002
   2.5466666666666665E-005     2.4907998968910029E-002
   2.5666666666666663E-005     2.4730653089183416E-002
   2.5866666666666661E-005     2.2840445438703123E-002
   2.6066666666666666E-005     1.9303471783930218E-002
   2.6266666666666664E-005     1.4300244390090609E-002
   2.6466666666666662E-005     8.1151411711920703E-003
   2.6666666666666660E-005     1.1187021685662400E-003
   2.6866666666666665E-005    -6.2559084505323841E-003
   2.7066666666666663E-005    -1.3540590073444428E-002
   2.7266666666666661E-005    -2.0262205298468040E-002
   2.7466666666666666E-005    -2.5972689825733610E-002
   2.7666666666666664E-005    -3.0277419218346233E-002
   2.7866666666666662E-005    -3.2860085340905704E-002
   2.8066666666666667E-005    -3.3502628075412828E-002
   2.8266666666666658E-005    -3.2099188092567052E-002
   2.8466666666666663E-005    -2.8663399050581947E-002
   2.8666666666666668E-005    -2.3328843188561717E-002
   2.8866666666666659E-005    -1.6342837916020012E-002
   2.9066666666666664E-005    -8.0540927570811258E-003
   2.9266666666666669E-005     1.1049351993924809E-003
   2.9466666666666660E-005     1.0639980786005252E-002
   2.9666666666666665E-005     2.0020040957562137E-002
   2.9866666666666656E-005     2.8704384448413750E-002
   3.0066666666666661E-005     3.6170282292942620E-002
   3.0266666666666666E-005     4.1940306049087245E-002
   3.0466666666666657E-005     4.5608074963349836E-002
   3.0666666666666662E-005     4.6861443047774426E-002
   3.0866666666666667E-005     4.5502185521338501E-002
   3.1066666666666658E-005     4.1461277242457198E-002
   3.1266666666666663E-005     3.4809031974118596E-002
   3.1466666666666668E-005     2.5759375546187846E-002
   3.1666666666666659E-005     1.4667670077374548E-002
   3.1866666666666664E-005     2.0217008873003005E-003
   3.2066666666666656E-005    -1.1574430760211123E-002
   3.2266666666666660E-005    -2.5423422201228930E-002
   3.2466666666666665E-005    -3.8764531108756377E-002
   3.2666666666666657E-005    -5.0809227942493394E-002
   3.2866666666666661E-005    -6.0781548637275577E-002
   3.3066666666666666E-005    -6.7961533481054756E-002
   3.3266666666666658E-005    -7.1729752376187172E-002
   3.3466666666666662E-005    -7.1610526671510730E-002
   3.3666666666666667E-005    -6.7311257488778073E-002
   3.3866666666666659E-005    -5.8755129252502036E-002
   3.4066666666666664E-005    -4.6104530397119217E-002
   3.4266666666666668E-005    -2.9772794729985324E-002
   3.4466666666666660E-005    -1.0422344954556051E-002
   3.4666666666666665E-005     1.1052115218614432E-002
   3.4866666666666656E-005     3.3555815570880596E-002
   3.5066666666666661E-005     5.5841089546527431E-002
   3.5266666666666666E-005     7.6568126606596287E-002
   3.5466666666666657E-005     9.4376766490040523E-002
   3.5666666666666662E-005    0.10796599417025396     
   3.5866666666666667E-005    0.11617689550766322     
   3.6066666666666658E-005    0.11807419917523551     
   3.6266666666666663E-005    0.11302130820844010     
   3.6466666666666668E-005    0.10074351420509912     
   3.6666666666666659E-005     8.1374475479131833E-002
   3.6866666666666664E-005     5.5481754477018058E-002
   3.7066666666666669E-005     2.4068009633552531E-002
   3.7266666666666660E-005    -1.1454094925937422E-002
   3.7466666666666665E-005    -4.9313774012592557E-002
   3.7666666666666656E-005    -8.7459674968495160E-002
   3.7866666666666661E-005   -0.12366011333762769     
   3.8066666666666666E-005   -0.15562161662201471     
   3.8266666666666657E-005   -0.18111957450063859     
   3.8466666666666662E-005   -0.19813397775907990     
   3.8666666666666667E-005   -0.20498221848587572     
   3.8866666666666658E-005   -0.20044075884714543     
   3.9066666666666663E-005   -0.18384760203914563     
   3.9266666666666668E-005   -0.15517844964213026     
   3.9466666666666659E-005   -0.11509048427487362     
   3.9666666666666664E-005    -6.4929632980875840E-002
   3.9866666666666655E-005    -6.6991017982536705E-003
   4.0066666666666660E-005     5.7010753655166266E-002
   4.0266666666666665E-005    0.12312872919324767     
   4.0466666666666656E-005    0.18824066364303144     
   4.0666666666666661E-005    0.24875243368350131     
   4.0866666666666666E-005    0.30106990688330637     
   4.1066666666666657E-005    0.34178647236808979     
   4.1266666666666662E-005    0.36786872474191501     
   4.1466666666666667E-005    0.37683029225601139     
   4.1666666666666658E-005    0.36688499150154463     
   4.1866666666666663E-005    0.33707104898479112     
   4.2066666666666668E-005    0.28734010446806729     
   4.2266666666666660E-005    0.21860607081059122     
   4.2466666666666664E-005    0.13275133072562595     
   4.2666666666666656E-005     3.2589341756111702E-002
   4.2866666666666661E-005    -7.8214756047723738E-002
   4.3066666666666665E-005   -0.19526245433486275     
   4.3266666666666657E-005   -0.31357407094795808     
   4.3466666666666662E-005   -0.42776860802999567     
   4.3666666666666666E-005   -0.53226377718043572     
   4.3866666666666658E-005   -0.62148780150319416     
   4.4066666666666663E-005   -0.69009436267233404     
   4.4266666666666667E-005   -0.73317185318504541     
   4.4466666666666659E-005   -0.74643815603983210     
   4.4666666666666664E-005   -0.72641331088530492     
   4.4866666666666655E-005   -0.67056191970216961     
   4.5066666666666660E-005   -0.57740031827956728     
   4.5266666666666665E-005   -0.44656307016219648     
   4.5466666666666656E-005   -0.27882588403681052     
   4.5666666666666661E-005    -7.6083699537868560E-002
   4.5866666666666666E-005    0.15871535240086626     
   4.6066666666666657E-005    0.42167838030870791     
   4.6266666666666662E-005    0.70811386178255109     
   4.6466666666666667E-005     1.0127103679754292     
   4.6666666666666658E-005     1.3297400598091413     
   4.6866666666666663E-005     1.6532803601894177     
   4.7066666666666668E-005     1.9774428332814229     
   4.7266666666666659E-005     2.2966027353999809     
   4.7466666666666664E-005     2.6056173518982240     
   4.7666666666666655E-005     2.9000270013568863     
   4.7866666666666660E-005     3.1762271099964923     
   4.8066666666666665E-005     3.4316084087499639     
   4.8266666666666656E-005     3.6646539175403903     
   4.8466666666666661E-005     3.8749932425409264     
   4.8666666666666666E-005     4.0634067335157180     
   4.8866666666666657E-005     4.2317803114221810     
   4.9066666666666662E-005     4.3830113235366284     
   4.9266666666666667E-005     4.5208646857919401     
   4.9466666666666658E-005     4.6497860720344182     
   4.9666666666666663E-005     4.7746793500118905     
   4.9866666666666655E-005     4.9006494586636800     
   5.0066666666666659E-005     5.0327270093754590     
   5.0266666666666664E-005     5.1755782764274771     
   5.0466666666666656E-005     5.3332182694676780     
   5.0666666666666660E-005     5.5087314146913959     
   5.0866666666666665E-005     5.7040209502460693     
   5.1066666666666657E-005     5.9195888811342918     
   5.1266666666666661E-005     6.1543629598946712     
   5.1466666666666666E-005     6.4055808696281238     
   5.1666666666666658E-005     6.6687345584904465     
   5.1866666666666662E-005     6.9375817153440984     
   5.2066666666666667E-005     7.2042301581652026     
   5.2266666666666659E-005     7.4592860737754139     
   5.2466666666666664E-005     7.6920694198649695     
   5.2666666666666655E-005     7.8908918652186451     
   5.2866666666666660E-005     8.0433726908345662     
   5.3066666666666665E-005     8.1368022355735228     
   5.3266666666666656E-005     8.1585160625037112     
   5.3466666666666661E-005     8.0962820606433503     
   5.3666666666666666E-005     7.9386714727938825     
   5.3866666666666657E-005     7.6753983345738135     
   5.4066666666666662E-005     7.2976193947805283     
   5.4266666666666667E-005     6.7981693736969149     
   5.4466666666666658E-005     6.1717238326442452     
   5.4666666666666663E-005     5.4148800523510916     
   5.4866666666666668E-005     4.5261545404743204     
   5.5066666666666659E-005     3.5058909077518194     
   5.5266666666666664E-005     2.3560836632005895     
   5.5466666666666655E-005     1.0801311390933312     
   5.5666666666666660E-005   -0.31747768260707510     
   5.5866666666666665E-005    -1.8315167520280902     
   5.6066666666666656E-005    -3.4564041058889394     
   5.6266666666666661E-005    -5.1865859634123703     
   5.6466666666666666E-005    -7.0169038175122260     
   5.6666666666666657E-005    -8.9429201344454032     
   5.6866666666666662E-005    -10.961185714558923     
   5.7066666666666667E-005    -13.069436834215365     
   5.7266666666666658E-005    -15.266690239325522     
   5.7466666666666663E-005    -17.553263223088116     
   5.7666666666666654E-005    -19.930675653454024     
   5.7866666666666659E-005    -22.401465225125261     
   5.8066666666666664E-005    -24.968912155903585     
   5.8266666666666655E-005    -27.636676245661366     
   5.8466666666666660E-005    -30.408377794597662     
   5.8666666666666665E-005    -33.287126801796262     
   5.8866666666666656E-005    -36.275021370353222     
   5.9066666666666661E-005    -39.372638319214914     
   5.9266666666666666E-005    -42.578521232436657     
   5.9466666666666657E-005    -45.888726310401395     
   5.9666666666666662E-005    -49.296384125468137     
   5.9866666666666667E-005    -52.791337419463289     
   6.0066666666666659E-005    -56.359865265911154     
   6.0266666666666663E-005    -59.984498609596962     
   6.0466666666666655E-005    -63.643942772467511     
   6.0666666666666660E-005    -67.313050559991069     
   6.0866666666666664E-005    -70.963017593909527     
   6.1066666666666656E-005    -74.561610221860349     
   6.1266666666666661E-005    -78.073535443810727     
   6.1466666666666665E-005    -81.460940184972344     
   6.1666666666666657E-005    -84.683962628661064     
   6.1866666666666662E-005    -87.701420376524709     
   6.2066666666666666E-005    -90.471530072637250     
   6.2266666666666658E-005    -92.952717277424568     
   6.2466666666666663E-005    -95.104402868452823     
   6.2666666666666668E-005    -96.887870113852131     
   6.2866666666666659E-005    -98.267030415870195     
   6.3066666666666664E-005    -99.209183504828147     
   6.3266666666666655E-005    -99.685724875211491     
   6.3466666666666660E-005    -99.672749578141762     
   6.3666666666666665E-005    -99.151531172842837     
   6.3866666666666656E-005    -98.108924134466534     
   6.4066666666666661E-005    -96.537618754519542     
   6.4266666666666666E-005    -94.436253828852657     
   6.4466666666666657E-005    -91.809445062436367     
   6.4666666666666662E-005    -88.667676714452881     
   6.4866666666666667E-005    -85.027085195824924     
   6.5066666666666658E-005    -80.909159942541820     
   6.5266666666666663E-005    -76.340391309594651     
   6.5466666666666654E-005    -71.351842374146003     
   6.5666666666666659E-005    -65.978720504643604     
   6.5866666666666664E-005    -60.259899218306167     
   6.6066666666666655E-005    -54.237502251755778     
   6.6266666666666660E-005    -47.956433142273269     
   6.6466666666666665E-005    -41.463995411370277     
   6.6666666666666656E-005    -34.809514719555366     
   6.6866666666666661E-005    -28.044016202905475     
   6.7066666666666666E-005    -21.219919455497688     
   6.7266666666666657E-005    -14.390788713309838     
   6.7466666666666662E-005    -7.6110689948826575     
   6.7666666666666667E-005   -0.93586946115999048     
   6.7866666666666658E-005     5.5792764447167578     
   6.8066666666666663E-005     11.878667229715568     
   6.8266666666666655E-005     17.906716236142294     
   6.8466666666666659E-005     23.608273415602262     
   6.8666666666666664E-005     28.929014185779931     
   6.8866666666666656E-005     33.815890344547682     
   6.9066666666666660E-005     38.217642445262655     
   6.9266666666666665E-005     42.085384355286877     
   6.9466666666666657E-005     45.373277619888540     
   6.9666666666666661E-005     48.039236497478029     
   6.9866666666666666E-005     50.045714798005818     
   7.0066666666666658E-005     51.360517637800960     
   7.0266666666666662E-005     51.957597208970199     
   7.0466666666666654E-005     51.817904446787480     
   7.0666666666666659E-005     50.930150844636700     
   7.0866666666666664E-005     49.291543297678615     
   7.1066666666666655E-005     46.908426055443108     
   7.1266666666666660E-005     43.796802771960373     
   7.1466666666666665E-005     39.982749654536889     
   7.1666666666666656E-005     35.502655963159320     
   7.1866666666666661E-005     30.403268253214321     
   7.2066666666666666E-005     24.741587481330406     
   7.2266666666666657E-005     18.584579629892794     
   7.2466666666666662E-005     12.008613756361932     
   7.2666666666666667E-005     5.0988153151629874     
   7.2866666666666658E-005    -2.0518918793499523     
   7.3066666666666663E-005    -9.3437847682750039     
   7.3266666666666654E-005    -16.671617974684118     
   7.3466666666666659E-005    -23.925964928960745     
   7.3666666666666664E-005    -30.994681046772676     
   7.3866666666666655E-005    -37.764480048258669     
   7.4066666666666660E-005    -44.122482737094735     
   7.4266666666666665E-005    -49.957859646598536     
   7.4466666666666656E-005    -55.163445277464270     
   7.4666666666666661E-005    -59.637261430256252     
   7.4866666666666666E-005    -63.284041827472670     
   7.5066666666666657E-005    -66.016579816127532     
   7.5266666666666662E-005    -67.757031793947817     
   7.5466666666666653E-005    -68.438037469686790     