  -3.3333333333333335E-005     0.0000000000000000     
  -3.3133333333333337E-005     0.0000000000000000     
  -3.2933333333333332E-005     0.0000000000000000     
  -3.2733333333333334E-005     0.0000000000000000     
  -3.2533333333333336E-005     0.0000000000000000     
  -3.2333333333333338E-005     0.0000000000000000     
  -3.2133333333333333E-005     0.0000000000000000     
  -3.1933333333333335E-005     0.0000000000000000     
  -3.1733333333333337E-005     0.0000000000000000     
  -3.1533333333333332E-005     0.0000000000000000     
  -3.1333333333333334E-005     0.0000000000000000     
  -3.1133333333333336E-005     0.0000000000000000     
  -3.0933333333333338E-005     0.0000000000000000     
  -3.0733333333333333E-005     0.0000000000000000     
  -3.0533333333333335E-005     0.0000000000000000     
  -3.0333333333333337E-005     0.0000000000000000     
  -3.0133333333333335E-005     0.0000000000000000     
  -2.9933333333333334E-005     0.0000000000000000     
  -2.9733333333333336E-005     0.0000000000000000     
  -2.9533333333333334E-005     0.0000000000000000     
  -2.9333333333333336E-005     0.0000000000000000     
  -2.9133333333333334E-005     0.0000000000000000     
  -2.8933333333333336E-005     0.0000000000000000     
  -2.8733333333333335E-005     0.0000000000000000     
  -2.8533333333333333E-005     0.0000000000000000     
  -2.8333333333333335E-005     0.0000000000000000     
  -2.8133333333333337E-005     0.0000000000000000     
  -2.7933333333333336E-005     0.0000000000000000     
  -2.7733333333333334E-005     0.0000000000000000     
  -2.7533333333333336E-005     0.0000000000000000     
  -2.7333333333333335E-005     0.0000000000000000     
  -2.7133333333333333E-005     0.0000000000000000     
  -2.6933333333333335E-005     0.0000000000000000     
  -2.6733333333333337E-005     0.0000000000000000     
  -2.6533333333333336E-005     0.0000000000000000     
  -2.6333333333333334E-005     0.0000000000000000     
  -2.6133333333333336E-005     0.0000000000000000     
  -2.5933333333333335E-005     0.0000000000000000     
  -2.5733333333333333E-005     0.0000000000000000     
  -2.5533333333333335E-005     0.0000000000000000     
  -2.5333333333333337E-005     0.0000000000000000     
  -2.5133333333333336E-005     0.0000000000000000     
  -2.4933333333333334E-005     0.0000000000000000     
  -2.4733333333333336E-005     0.0000000000000000     
  -2.4533333333333334E-005     0.0000000000000000     
  -2.4333333333333333E-005     0.0000000000000000     
  -2.4133333333333335E-005     0.0000000000000000     
  -2.3933333333333337E-005     0.0000000000000000     
  -2.3733333333333335E-005     0.0000000000000000     
  -2.3533333333333334E-005     0.0000000000000000     
  -2.3333333333333336E-005     0.0000000000000000     
  -2.3133333333333338E-005     0.0000000000000000     
  -2.2933333333333336E-005     0.0000000000000000     
  -2.2733333333333335E-005     0.0000000000000000     
  -2.2533333333333337E-005     0.0000000000000000     
  -2.2333333333333335E-005     0.0000000000000000     
  -2.2133333333333334E-005     0.0000000000000000     
  -2.1933333333333336E-005     0.0000000000000000     
  -2.1733333333333338E-005     0.0000000000000000     
  -2.1533333333333336E-005     0.0000000000000000     
  -2.1333333333333335E-005     0.0000000000000000     
  -2.1133333333333337E-005     0.0000000000000000     
  -2.0933333333333335E-005     0.0000000000000000     
  -2.0733333333333334E-005     0.0000000000000000     
  -2.0533333333333336E-005     0.0000000000000000     
  -2.0333333333333337E-005     0.0000000000000000     
  -2.0133333333333336E-005     0.0000000000000000     
  -1.9933333333333334E-005     0.0000000000000000     
  -1.9733333333333336E-005     0.0000000000000000     
  -1.9533333333333335E-005     0.0000000000000000     
  -1.9333333333333333E-005     0.0000000000000000     
  -1.9133333333333335E-005     0.0000000000000000     
  -1.8933333333333337E-005     0.0000000000000000     
  -1.8733333333333336E-005     0.0000000000000000     
  -1.8533333333333334E-005     0.0000000000000000     
  -1.8333333333333336E-005     0.0000000000000000     
  -1.8133333333333335E-005     0.0000000000000000     
  -1.7933333333333337E-005     0.0000000000000000     
  -1.7733333333333335E-005     2.3406717598290683E-040
  -1.7533333333333337E-005     4.5592493775104864E-040
  -1.7333333333333336E-005     2.4452004135968501E-040
  -1.7133333333333334E-005    -8.1973113212747617E-040
  -1.6933333333333336E-005    -3.2677239044470500E-039
  -1.6733333333333335E-005    -7.1599729112238064E-039
  -1.6533333333333337E-005    -1.4006594996128945E-038
  -1.6333333333333335E-005    -2.2348613986140629E-038
  -1.6133333333333337E-005    -2.3977372943400031E-038
  -1.5933333333333336E-005    -9.3271214242101386E-039
  -1.5733333333333334E-005     3.2349020230758095E-038
  -1.5533333333333336E-005     1.2183187416340836E-037
  -1.5333333333333334E-005     2.6490872461008551E-037
  -1.5133333333333336E-005     4.6487453654332593E-037
  -1.4933333333333335E-005     6.5348615781196010E-037
  -1.4733333333333337E-005     6.9767305640166814E-037
  -1.4533333333333335E-005     3.6877585081461918E-037
  -1.4333333333333337E-005    -6.3329900804165974E-037
  -1.4133333333333336E-005    -2.5999258370479940E-036
  -1.3933333333333334E-005    -5.6281548039246308E-036
  -1.3733333333333336E-005    -9.3196576062037057E-036
  -1.3533333333333335E-005    -1.2425396082288997E-035
  -1.3333333333333337E-005    -1.2543622629632432E-035
  -1.3133333333333335E-005    -6.1073221714230048E-036
  -1.2933333333333337E-005     1.1026552298183009E-035
  -1.2733333333333336E-005     4.2084151469278585E-035
  -1.2533333333333338E-005     8.6854760073168524E-035
  -1.2333333333333336E-005     1.3843396763634076E-034
  -1.2133333333333335E-005     1.8014637473736989E-034
  -1.1933333333333337E-005     1.8423336222513579E-034
  -1.1733333333333335E-005     1.1425558219702219E-034
  -1.1533333333333337E-005    -6.7261312744261511E-035
  -1.1333333333333336E-005    -3.8599132772612665E-034
  -1.1133333333333337E-005    -8.4052606441988660E-034
  -1.0933333333333336E-005    -1.3901833427217335E-033
  -1.0733333333333334E-005    -1.9522047642857459E-033
  -1.0533333333333336E-005    -2.4103827884765567E-033
  -1.0333333333333335E-005    -2.6255557151214371E-033
  -1.0133333333333337E-005    -2.4205084479568364E-033
  -9.9333333333333354E-006    -1.4958442337817873E-033
  -9.7333333333333373E-006     7.6258495857141241E-034
  -9.5333333333333358E-006     5.5731194173405668E-033
  -9.3333333333333343E-006     1.5008622839665926E-032
  -9.1333333333333362E-006     3.1869118601438556E-032
  -8.9333333333333348E-006     5.8605643070251470E-032
  -8.7333333333333367E-006     9.4598598967350439E-032
  -8.5333333333333352E-006     1.3131445690119899E-031
  -8.3333333333333371E-006     1.4573961401145569E-031
  -8.1333333333333356E-006     9.4269012175345873E-032
  -7.9333333333333376E-006    -8.8130721591548514E-032
  -7.7333333333333361E-006    -4.7580881760945453E-031
  -7.5333333333333346E-006    -1.1182031138790494E-030
  -7.3333333333333365E-006    -1.9767570926163062E-030
  -7.1333333333333351E-006    -2.8357120493640336E-030
  -6.9333333333333370E-006    -3.2084300665665277E-030
  -6.7333333333333355E-006    -2.2887993210767242E-030
  -6.5333333333333374E-006     9.7210381215344240E-031
  -6.3333333333333359E-006     7.5650664787226761E-030
  -6.1333333333333379E-006     1.7814698769833110E-029
  -5.9333333333333364E-006     3.0460813517007760E-029
  -5.7333333333333349E-006     4.1590497016658702E-029
  -5.5333333333333368E-006     4.3830950541920767E-029
  -5.3333333333333354E-006     2.6498384779481388E-029
  -5.1333333333333373E-006    -2.2393900522834480E-029
  -4.9333333333333358E-006    -1.1141832884262112E-028
  -4.7333333333333377E-006    -2.3799719695822217E-028
  -4.5333333333333362E-006    -3.7855441876044564E-028
  -4.3333333333333348E-006    -4.7938107636766584E-028
  -4.1333333333333367E-006    -4.5336341440688322E-028
  -3.9333333333333352E-006    -1.8967430945473544E-028
  -3.7333333333333371E-006     4.1616601560019854E-028
  -3.5333333333333356E-006     1.4074248317882646E-027
  -3.3333333333333376E-006     2.6897633640220426E-027
  -3.1333333333333361E-006     3.9495399526089036E-027
  -2.9333333333333346E-006     4.5996881181966301E-027
  -2.7333333333333365E-006     3.8018409376203526E-027
  -2.5333333333333384E-006     6.2037063111365831E-028
  -2.3333333333333336E-006    -5.6482654611296146E-027
  -2.1333333333333355E-006    -1.4969294861341533E-026
  -1.9333333333333374E-006    -2.5961542634355144E-026
  -1.7333333333333393E-006    -3.5368052723268383E-026
  -1.5333333333333345E-006    -3.7896934750981383E-026
  -1.3333333333333364E-006    -2.6796753807079421E-026
  -1.1333333333333383E-006     4.4955718951084082E-027
  -9.3333333333333343E-007     5.9486065760391909E-026
  -7.3333333333333535E-007     1.3478183437930589E-025
  -5.3333333333333726E-007     2.1611436692244397E-025
  -3.3333333333333918E-007     2.7574869699560826E-025
  -1.3333333333333432E-007     2.7336062381212016E-025
   6.6666666666663770E-008     1.6258629432502438E-025
   2.6666666666666185E-007    -9.5227435434726621E-026
   4.6666666666666672E-007    -5.1031182815317161E-025
   6.6666666666666480E-007    -1.0399511903328744E-024
   8.6666666666666289E-007    -1.5669839979564519E-024
   1.0666666666666610E-006    -1.8917071559016259E-024
   1.2666666666666658E-006    -1.7494984496669817E-024
   1.4666666666666639E-006    -8.6495433118510882E-025
   1.6666666666666620E-006     9.5327460720187598E-025
   1.8666666666666669E-006     3.6853196998851590E-024
   2.0666666666666649E-006     6.9664574931684598E-024
   2.2666666666666630E-006     9.9919417015042518E-024
   2.4666666666666611E-006     1.1519706752438680E-023
   2.6666666666666660E-006     1.0032091275541983E-023
   2.8666666666666641E-006     4.0981809382890166E-024
   3.0666666666666622E-006    -7.0681238974781604E-024
   3.2666666666666602E-006    -2.2932203192546498E-023
   3.4666666666666651E-006    -4.1011387489507393E-023
   3.6666666666666632E-006    -5.6544835005365205E-023
   3.8666666666666613E-006    -6.2751423611633476E-023
   4.0666666666666661E-006    -5.1931683293164476E-023
   4.2666666666666642E-006    -1.7525380023955104E-023
   4.4666666666666623E-006     4.3027551689939045E-023
   4.6666666666666604E-006     1.2513523908368650E-022
   4.8666666666666652E-006     2.1450756060325884E-022
   5.0666666666666633E-006     2.8640248729442232E-022
   5.2666666666666614E-006     3.0789870874246087E-022
   5.4666666666666663E-006     2.4408765862547021E-022
   5.6666666666666644E-006     6.8257962458483884E-023
   5.8666666666666624E-006    -2.2512823506263500E-022
   6.0666666666666605E-006    -6.0741022378393375E-022
   6.2666666666666654E-006    -1.0068267057601764E-021
   6.4666666666666635E-006    -1.3087160022544490E-021
   6.6666666666666616E-006    -1.3693856084802070E-021
   6.8666666666666664E-006    -1.0461383246718174E-021
   7.0666666666666645E-006    -2.4203237332000854E-022
   7.2666666666666626E-006     1.0413993751307232E-021
   7.4666666666666607E-006     2.6560586833661767E-021
   7.6666666666666655E-006     4.2809832205911916E-021
   7.8666666666666636E-006     5.4364053151455271E-021
   8.0666666666666617E-006     5.5529462858283242E-021
   8.2666666666666598E-006     4.1006140541493560E-021
   8.4666666666666647E-006     7.6604116494874616E-022
   8.6666666666666627E-006    -4.3536293512308084E-021
   8.8666666666666608E-006    -1.0591180842402798E-020
   9.0666666666666657E-006    -1.6647531471368444E-020
   9.2666666666666638E-006    -2.0689865635813465E-020
   9.4666666666666619E-006    -2.0651182332932622E-020
   9.6666666666666599E-006    -1.4730559721777817E-020
   9.8666666666666648E-006    -2.0333564524192151E-021
   1.0066666666666663E-005     1.6776928781939449E-020
   1.0266666666666661E-005     3.9001456486387663E-020
   1.0466666666666666E-005     5.9816706094905278E-020
   1.0666666666666664E-005     7.2761595688554481E-020
   1.0866666666666662E-005     7.0898962862278535E-020
   1.1066666666666660E-005     4.8593590686829053E-020
   1.1266666666666665E-005     3.6461726150184169E-021
   1.1466666666666663E-005    -6.0684869909053201E-020
   1.1666666666666661E-005    -1.3439759894837261E-019
   1.1866666666666666E-005    -2.0085668767049320E-019
   1.2066666666666664E-005    -2.3882005869870777E-019
   1.2266666666666662E-005    -2.2656027517725968E-019
   1.2466666666666660E-005    -1.4773221023098524E-019
   1.2666666666666665E-005     1.9903008934468471E-021
   1.2866666666666663E-005     2.0907672980423736E-019
   1.3066666666666661E-005     4.3904063751890194E-019
   1.3266666666666666E-005     6.3798065132847761E-019
   1.3466666666666664E-005     7.4007667075208223E-019
   1.3666666666666662E-005     6.8118423345872771E-019
   1.3866666666666660E-005     4.1702701402929598E-019
   1.4066666666666665E-005    -5.7342991884020835E-020
   1.4266666666666663E-005    -6.9171115335952181E-019
   1.4466666666666661E-005    -1.3741581379677464E-018
   1.4666666666666666E-005    -1.9389663472546125E-018
   1.4866666666666664E-005    -2.1920107548391410E-018
   1.5066666666666662E-005    -1.9529580353211176E-018
   1.5266666666666661E-005    -1.1087865000982186E-018
   1.5466666666666665E-005     3.3189983290068780E-019
   1.5666666666666663E-005     2.1981608315180867E-018
   1.5866666666666662E-005     4.1453516862599799E-018
   1.6066666666666660E-005     5.6863565276675919E-018
   1.6266666666666665E-005     6.2717382300032147E-018
   1.6466666666666663E-005     5.4141505922937357E-018
   1.6666666666666661E-005     2.8388789667702673E-018
   1.6866666666666666E-005    -1.3707119017910985E-018
   1.7066666666666664E-005    -6.6732497783530091E-018
   1.7266666666666662E-005    -1.2056723028652488E-017
   1.7466666666666660E-005    -1.6145674441093873E-017
   1.7666666666666665E-005    -1.7439734044977749E-017
   1.7866666666666663E-005    -1.4664085786841728E-017
   1.8066666666666661E-005    -7.1765399044536394E-018
   1.8266666666666666E-005     4.6569880997456987E-018
   1.8466666666666664E-005     1.9227097817715756E-017
   1.8666666666666662E-005     3.3692399334202164E-017
   1.8866666666666660E-005     4.4314202025515105E-017
   1.9066666666666665E-005     4.7130838588215541E-017
   1.9266666666666663E-005     3.8904718688373541E-017
   1.9466666666666661E-005     1.8183231935837339E-017
   1.9666666666666666E-005    -1.3764549894842516E-017
   1.9866666666666664E-005    -5.2415607331629071E-017
   2.0066666666666662E-005    -9.0127853577411645E-017
   2.0266666666666660E-005    -1.1711350814057054E-016
   2.0466666666666665E-005    -1.2325959851050417E-016
   2.0666666666666663E-005    -1.0058867341926495E-016
   2.0866666666666661E-005    -4.5926570328153000E-017
   2.1066666666666659E-005     3.6839647969266359E-017
   2.1266666666666664E-005     1.3561095776434401E-016
   2.1466666666666662E-005     2.3065498523337424E-016
   2.1666666666666660E-005     2.9728073196096980E-016
   2.1866666666666665E-005     3.1055178829928147E-016
   2.2066666666666663E-005     2.5144539070010214E-016
   2.2266666666666661E-005     1.1332790043190173E-016
   2.2466666666666659E-005    -9.2791930643769168E-017
   2.2666666666666664E-005    -3.3590276278881148E-016
   2.2866666666666662E-005    -5.6694446071946726E-016
   2.3066666666666660E-005    -7.2581644469133182E-016
   2.3266666666666665E-005    -7.5311831039807401E-016
   2.3466666666666663E-005    -6.0502519215925131E-016
   2.3666666666666661E-005    -2.6846982311610730E-016
   2.3866666666666660E-005     2.2706339320976302E-016
   2.4066666666666664E-005     8.0499874742165201E-016
   2.4266666666666662E-005     1.3475033161158233E-015
   2.4466666666666661E-005     1.7130899365688317E-015
   2.4666666666666665E-005     1.7648286724607449E-015
   2.4866666666666663E-005     1.4050710094210110E-015
   2.5066666666666662E-005     6.0987541290248117E-016
   2.5266666666666660E-005    -5.4542276494112789E-016
   2.5466666666666665E-005    -1.8781320639265796E-015
   2.5666666666666663E-005    -3.1142117702528239E-015
   2.5866666666666661E-005    -3.9307611431098662E-015
   2.6066666666666666E-005    -4.0215046890057516E-015
   2.6266666666666664E-005    -3.1752292230426786E-015
   2.6466666666666662E-005    -1.3513917475712579E-015
   2.6666666666666660E-005     1.2662428821913768E-015
   2.6866666666666665E-005     4.2565582094056377E-015
   2.7066666666666663E-005     7.0020637132334487E-015
   2.7266666666666661E-005     8.7875517999344364E-015
   2.7466666666666666E-005     8.9469485425272226E-015
   2.7666666666666664E-005     7.0348943247403443E-015
   2.7866666666666662E-005     2.9877333462860519E-015
   2.8066666666666667E-005    -2.7673799038950493E-015
   2.8266666666666658E-005    -9.2941310232764565E-015
   2.8466666666666663E-005    -1.5245782268675542E-014
   2.8666666666666668E-005    -1.9085496218587223E-014
   2.8866666666666659E-005    -1.9404535403141047E-014
   2.9066666666666664E-005    -1.5285640985650380E-014
   2.9266666666666669E-005    -6.6355927328878026E-015
   2.9466666666666660E-005     5.5993549883848440E-015
   2.9666666666666665E-005     1.9413553512743228E-014
   2.9866666666666656E-005     3.1967373276789028E-014
   3.0066666666666661E-005     4.0060787563265037E-014
   3.0266666666666666E-005     4.0799667791027563E-014
   3.0466666666666657E-005     3.2341070616423214E-014
   3.0666666666666662E-005     1.4559645049060011E-014
   3.0866666666666667E-005    -1.0539273909064449E-014
   3.1066666666666658E-005    -3.8812943960085520E-014
   3.1266666666666663E-005    -6.4471891200550993E-014
   3.1466666666666668E-005    -8.1061549686383408E-014
   3.1666666666666659E-005    -8.2811852218755367E-014
   3.1866666666666664E-005    -6.6118788977562117E-014
   3.2066666666666656E-005    -3.0840682509698765E-014
   3.2266666666666660E-005     1.8932108064273702E-014
   3.2466666666666665E-005     7.4924163574921600E-014
   3.2666666666666657E-005     1.2569896901139422E-013
   3.2866666666666661E-005     1.5862576785163471E-013
   3.3066666666666666E-005     1.6252885688473464E-013
   3.3266666666666658E-005     1.3054698909177390E-013
   3.3466666666666662E-005     6.2585274499528530E-014
   3.3666666666666667E-005    -3.3288469216546314E-014
   3.3866666666666659E-005    -1.4103688344387589E-013
   3.4066666666666664E-005    -2.3870933452201784E-013
   3.4266666666666668E-005    -3.0225920600149383E-013
   3.4466666666666660E-005    -3.1059409381854889E-013
   3.4666666666666665E-005    -2.5094441832519042E-013
   3.4866666666666656E-005    -1.2338409821858731E-013
   3.5066666666666661E-005     5.6692582838485909E-014
   3.5266666666666666E-005     2.5909613492464886E-013
   3.5466666666666657E-005     4.4282133805440623E-013
   3.5666666666666662E-005     5.6323118239633560E-013
   3.5866666666666667E-005     5.8141723825104534E-013
   3.6066666666666658E-005     4.7401936941706308E-013
   3.6266666666666663E-005     2.4136715610059427E-013
   3.6466666666666668E-005    -8.8207697230985101E-014
   3.6666666666666659E-005    -4.5956286028524739E-013
   3.6866666666666664E-005    -7.9817255313100370E-013
   3.7066666666666669E-005    -1.0232427073477209E-012
   3.7266666666666660E-005    -1.0645835192088925E-012
   3.7466666666666665E-005    -8.8011718624262961E-013
   3.7666666666666656E-005    -4.7020862355636979E-013
   3.7866666666666661E-005     1.1495169148226890E-013
   3.8066666666666666E-005     7.7777177411107573E-013
   3.8266666666666657E-005     1.3866429135848543E-012
   3.8466666666666662E-005     1.7991773925196007E-012
   3.8666666666666667E-005     1.8917990645087479E-012
   3.8866666666666658E-005     1.5901696767072443E-012
   3.9066666666666663E-005     8.9382932074675609E-013
   3.9266666666666668E-005    -1.1139012841498205E-013
   3.9466666666666659E-005    -1.2579534779132567E-012
   3.9666666666666664E-005    -2.3199877981766637E-012
   3.9866666666666655E-005    -3.0533135593816536E-012
   4.0066666666666660E-005    -3.2459843980227891E-012
   4.0266666666666665E-005    -2.7698577748872304E-012
   4.0466666666666656E-005    -1.6219803610705444E-012
   4.0666666666666661E-005     5.4954512270461003E-014
   4.0866666666666666E-005     1.9808745566723147E-012
   4.1066666666666657E-005     3.7779893173007343E-012
   4.1266666666666662E-005     5.0380012927979606E-012
   4.1466666666666667E-005     5.4063357322998521E-012
   4.1666666666666658E-005     4.6675313285241149E-012
   4.1866666666666663E-005     2.8132166597494372E-012
   4.2066666666666668E-005     7.5184381548266762E-014
   4.2266666666666660E-005    -3.0889226996228994E-012
   4.2466666666666664E-005    -6.0612352456259313E-012
   4.2666666666666656E-005    -8.1738332151348093E-012
   4.2866666666666661E-005    -8.8459845076995951E-012
   4.3066666666666665E-005    -7.7224501481763989E-012
   4.3266666666666657E-005    -4.7829084153587283E-012
   4.3466666666666662E-005    -3.9451505708157379E-013
   4.3666666666666666E-005     4.7119268968799514E-012
   4.3866666666666658E-005     9.5478312383572281E-012
   4.4066666666666663E-005     1.3043299222206593E-011
   4.4266666666666667E-005     1.4265752732890521E-011
   4.4466666666666659E-005     1.2639230035915299E-011
   4.4666666666666664E-005     8.1169205406295959E-012
   4.4866666666666655E-005     1.2632564144435343E-012
   4.5066666666666660E-005    -6.7844634071620095E-012
   4.5266666666666665E-005    -1.4482820975282445E-011
   4.5466666666666656E-005    -2.0158517567262810E-011
   4.5666666666666661E-005    -2.2349042215201100E-011
   4.5866666666666666E-005    -2.0142683835841112E-011
   4.6066666666666657E-005    -1.3444579442279299E-011
   4.6266666666666662E-005    -3.1017791094546627E-012
   4.6466666666666667E-005     9.1577630069031115E-012
   4.6666666666666658E-005     2.0982973685632773E-011
   4.6866666666666663E-005     2.9823752612147078E-011
   4.7066666666666668E-005     3.3451101006422018E-011
   4.7266666666666659E-005     3.0473429596759069E-011
   4.7466666666666664E-005     2.0737362416433885E-011
   4.7666666666666655E-005     5.5124336244136944E-012
   4.7866666666666660E-005    -1.2606903137922971E-011
   4.8066666666666665E-005    -3.0095796637320749E-011
   4.8266666666666656E-005    -4.3141596071251480E-011
   4.8466666666666661E-005    -4.8426768374062728E-011
   4.8666666666666666E-005    -4.3900893301895775E-011
   4.8866666666666657E-005    -2.9374456337724168E-011
   4.9066666666666662E-005    -6.7851613410828639E-012
   4.9266666666666667E-005     1.9960001086324994E-011
   4.9466666666666658E-005     4.5584279331885600E-011
   4.9666666666666663E-005     6.4406850459203660E-011
   4.9866666666666655E-005     7.1511701678918724E-011
   5.0066666666666659E-005     6.3893743566405353E-011
   5.0266666666666664E-005     4.1334476145003999E-011
   5.0466666666666656E-005     6.7880198029387084E-012
   5.0666666666666660E-005    -3.3862577397300581E-011
   5.0866666666666665E-005    -7.2700969422927975E-011
   5.1066666666666657E-005    -1.0121087302626452E-010
   5.1266666666666661E-005    -1.1200555305214882E-010
   5.1466666666666666E-005    -1.0052119265146909E-010
   5.1666666666666658E-005    -6.6311898055165759E-011
   5.1866666666666662E-005    -1.3627987589556942E-011
   5.2066666666666667E-005     4.8925152966664324E-011
   5.2266666666666659E-005     1.0967821518159842E-010
   5.2466666666666664E-005     1.5597274941368485E-010
   5.2666666666666655E-005     1.7667022524670457E-010
   5.2866666666666660E-005     1.6461711108284138E-010
   5.3066666666666665E-005     1.1854611199293707E-010
   5.3266666666666656E-005     4.3957757585108009E-011
   5.3466666666666661E-005    -4.7307080068176882E-011
   5.3666666666666666E-005    -1.3884809919440131E-010
   5.3866666666666657E-005    -2.1260557773707984E-010
   5.4066666666666662E-005    -2.5238669840685249E-010
   5.4266666666666667E-005    -2.4734551840628319E-010
   5.4466666666666658E-005    -1.9468792568784319E-010
   5.4666666666666663E-005    -1.0096379521939701E-010
   5.4866666666666668E-005     1.8456010478536674E-011
   5.5066666666666659E-005     1.4177808373662428E-010
   5.5266666666666664E-005     2.4473262678460330E-010
   5.5466666666666655E-005     3.0538281511751684E-010
   5.5666666666666660E-005     3.0886823234119613E-010
   5.5866666666666665E-005     2.5107894160396231E-010
   5.6066666666666656E-005     1.4038998993632433E-010
   5.6266666666666661E-005    -3.0863023098704817E-012
   5.6466666666666666E-005    -1.5079814149815579E-010
   5.6666666666666657E-005    -2.7113694468579327E-010
   5.6866666666666662E-005    -3.3595508837302010E-010
   5.7066666666666667E-005    -3.2693787253041672E-010
   5.7266666666666658E-005    -2.4046083915149724E-010
   5.7466666666666663E-005    -8.9753091599377535E-011
   5.7666666666666654E-005     9.6352052980003850E-011
   5.7866666666666659E-005     2.7814366867390565E-010
   5.8066666666666664E-005     4.1257240228235948E-010
   5.8266666666666655E-005     4.6227513496933985E-010
   5.8466666666666660E-005     4.0432000276972133E-010
   5.8666666666666665E-005     2.3679033401314852E-010
   5.8866666666666656E-005    -1.8399324246345495E-011
   5.9066666666666661E-005    -3.1742737923374049E-010
   5.9266666666666666E-005    -6.0130423455176792E-010
   5.9466666666666657E-005    -8.0650162617167855E-010
   5.9666666666666662E-005    -8.7765242667469023E-010
   5.9866666666666667E-005    -7.7989755780070217E-010
   6.0066666666666659E-005    -5.0830480682335360E-010
   6.0266666666666663E-005    -9.2149014740515503E-011
   6.0466666666666655E-005     4.0729919001554349E-010
   6.0666666666666660E-005     9.0562286040043890E-010
   6.0866666666666664E-005     1.3095489360574948E-009
   6.1066666666666656E-005     1.5342705477755377E-009
   6.1266666666666661E-005     1.5205761230383136E-009
   6.1466666666666665E-005     1.2483377428156816E-009
   6.1666666666666657E-005     7.4337641784642943E-010
   6.1866666666666662E-005     7.5833283113099294E-011
   6.2066666666666666E-005    -6.5023886104877921E-010
   6.2266666666666658E-005    -1.3145917775785609E-009
   6.2466666666666663E-005    -1.8027419569882581E-009
   6.2666666666666668E-005    -2.0280320420283594E-009
   6.2866666666666659E-005    -1.9493455571874215E-009
   6.3066666666666664E-005    -1.5806169448192670E-009
   6.3266666666666655E-005    -9.8970729024730117E-010
   6.3466666666666660E-005    -2.8625009713914379E-010
   6.3666666666666665E-005     3.9966416538904329E-010
   6.3866666666666656E-005     9.4406071196659068E-010
   6.4066666666666661E-005     1.2556295816808400E-009
   6.4266666666666666E-005     1.2966002403396206E-009
   6.4466666666666657E-005     1.0930770097882976E-009
   6.4666666666666662E-005     7.3182541712551988E-010
   6.4866666666666667E-005     3.4314670323755605E-010
   6.5066666666666658E-005     7.2392309948443484E-011
   6.5266666666666663E-005     4.5308913751293263E-011
   6.5466666666666654E-005     3.3415962824170148E-010
   6.5666666666666659E-005     9.3203694110130562E-010
   6.5866666666666664E-005     1.7417624400983467E-009
   6.6066666666666655E-005     2.5833413794689846E-009
   6.6266666666666660E-005     3.2205025427674435E-009
   6.6466666666666665E-005     3.4030216416962649E-009
   6.6666666666666656E-005     2.9180578888218736E-009
   6.6866666666666661E-005     1.6412931498897997E-009
   6.7066666666666666E-005    -4.2210016231464792E-010
   6.7266666666666657E-005    -3.1155517943187968E-009
   6.7466666666666662E-005    -6.1342639325377055E-009
   6.7666666666666667E-005    -9.0552627676456262E-009
   6.7866666666666658E-005    -1.1391335552090788E-008
   6.8066666666666663E-005    -1.2661397231497422E-008
   6.8266666666666655E-005    -1.2466569259485584E-008
   6.8466666666666659E-005    -1.0559753705358836E-008
   6.8666666666666664E-005    -6.8973145506912987E-009
   6.8866666666666656E-005    -1.6642306074023040E-009
   6.9066666666666660E-005     4.7314996077403177E-009
   6.9266666666666665E-005     1.1694406516076261E-008
   6.9466666666666657E-005     1.8501462945129775E-008
   6.9666666666666661E-005     2.4377237566646275E-008
   6.9866666666666666E-005     2.8573596450612748E-008
   7.0066666666666658E-005     3.0443811177197870E-008
   7.0266666666666662E-005     2.9503443635980926E-008
   7.0466666666666654E-005     2.5474166328242125E-008
   7.0666666666666659E-005     1.8310725627020973E-008
   7.0866666666666664E-005     8.2143465513249221E-009
   7.1066666666666655E-005    -4.3625559623112457E-009
   7.1266666666666660E-005    -1.8716415458840550E-008
   7.1466666666666665E-005    -3.3896294258371210E-008
   7.1666666666666656E-005    -4.8714777584684154E-008
   7.1866666666666661E-005    -6.1774030795577321E-008
   7.2066666666666666E-005    -7.1518301856648054E-008
   7.2266666666666657E-005    -7.6324727044666727E-008
   7.2466666666666662E-005    -7.4640970317746791E-008
   7.2666666666666667E-005    -6.5170782178630975E-008
   7.2866666666666658E-005    -4.7097848735936656E-008
   7.3066666666666663E-005    -2.0325487305142684E-008
   7.3266666666666654E-005     1.4301968569292635E-008
   7.3466666666666659E-005     5.4839092745361262E-008
   7.3666666666666664E-005     9.8185744511566648E-008
   7.3866666666666655E-005     1.4017961906972351E-007
   7.4066666666666660E-005     1.7586035707812419E-007
   7.4266666666666665E-005     1.9990841975008410E-007
   7.4466666666666656E-005     2.0723425560559315E-007
   7.4666666666666661E-005     1.9366498393949964E-007
   7.4866666666666666E-005     1.5664963013708580E-007
   7.5066666666666657E-005     9.5887006101014660E-008
   7.5266666666666662E-005     1.3775631231222473E-008
   7.5466666666666653E-005    -8.4405347112342915E-008