  -3.3333333333333335E-005     0.0000000000000000     
  -3.3133333333333337E-005     0.0000000000000000     
  -3.2933333333333332E-005     0.0000000000000000     
  -3.2733333333333334E-005     0.0000000000000000     
  -3.2533333333333336E-005     0.0000000000000000     
  -3.2333333333333338E-005     0.0000000000000000     
  -3.2133333333333333E-005     0.0000000000000000     
  -3.1933333333333335E-005     0.0000000000000000     
  -3.1733333333333337E-005     0.0000000000000000     
  -3.1533333333333332E-005     0.0000000000000000     
  -3.1333333333333334E-005     0.0000000000000000     
  -3.1133333333333336E-005     0.0000000000000000     
  -3.0933333333333338E-005     0.0000000000000000     
  -3.0733333333333333E-005     0.0000000000000000     
  -3.0533333333333335E-005     0.0000000000000000     
  -3.0333333333333337E-005     0.0000000000000000     
  -3.0133333333333335E-005     0.0000000000000000     
  -2.9933333333333334E-005     0.0000000000000000     
  -2.9733333333333336E-005     0.0000000000000000     
  -2.9533333333333334E-005     0.0000000000000000     
  -2.9333333333333336E-005     0.0000000000000000     
  -2.9133333333333334E-005     0.0000000000000000     
  -2.8933333333333336E-005     0.0000000000000000     
  -2.8733333333333335E-005     0.0000000000000000     
  -2.8533333333333333E-005     0.0000000000000000     
  -2.8333333333333335E-005     0.0000000000000000     
  -2.8133333333333337E-005     0.0000000000000000     
  -2.7933333333333336E-005     0.0000000000000000     
  -2.7733333333333334E-005     0.0000000000000000     
  -2.7533333333333336E-005     0.0000000000000000     
  -2.7333333333333335E-005     0.0000000000000000     
  -2.7133333333333333E-005     0.0000000000000000     
  -2.6933333333333335E-005     0.0000000000000000     
  -2.6733333333333337E-005     0.0000000000000000     
  -2.6533333333333336E-005     0.0000000000000000     
  -2.6333333333333334E-005     0.0000000000000000     
  -2.6133333333333336E-005     0.0000000000000000     
  -2.5933333333333335E-005     0.0000000000000000     
  -2.5733333333333333E-005     0.0000000000000000     
  -2.5533333333333335E-005     0.0000000000000000     
  -2.5333333333333337E-005     0.0000000000000000     
  -2.5133333333333336E-005     0.0000000000000000     
  -2.4933333333333334E-005     0.0000000000000000     
  -2.4733333333333336E-005     0.0000000000000000     
  -2.4533333333333334E-005     0.0000000000000000     
  -2.4333333333333333E-005     0.0000000000000000     
  -2.4133333333333335E-005     0.0000000000000000     
  -2.3933333333333337E-005     0.0000000000000000     
  -2.3733333333333335E-005     0.0000000000000000     
  -2.3533333333333334E-005     0.0000000000000000     
  -2.3333333333333336E-005     0.0000000000000000     
  -2.3133333333333338E-005     0.0000000000000000     
  -2.2933333333333336E-005     0.0000000000000000     
  -2.2733333333333335E-005     0.0000000000000000     
  -2.2533333333333337E-005     0.0000000000000000     
  -2.2333333333333335E-005     0.0000000000000000     
  -2.2133333333333334E-005     0.0000000000000000     
  -2.1933333333333336E-005     0.0000000000000000     
  -2.1733333333333338E-005     0.0000000000000000     
  -2.1533333333333336E-005     0.0000000000000000     
  -2.1333333333333335E-005     0.0000000000000000     
  -2.1133333333333337E-005     0.0000000000000000     
  -2.0933333333333335E-005     0.0000000000000000     
  -2.0733333333333334E-005     0.0000000000000000     
  -2.0533333333333336E-005     0.0000000000000000     
  -2.0333333333333337E-005     0.0000000000000000     
  -2.0133333333333336E-005     0.0000000000000000     
  -1.9933333333333334E-005     0.0000000000000000     
  -1.9733333333333336E-005     0.0000000000000000     
  -1.9533333333333335E-005     0.0000000000000000     
  -1.9333333333333333E-005     0.0000000000000000     
  -1.9133333333333335E-005     0.0000000000000000     
  -1.8933333333333337E-005     0.0000000000000000     
  -1.8733333333333336E-005     0.0000000000000000     
  -1.8533333333333334E-005     0.0000000000000000     
  -1.8333333333333336E-005     0.0000000000000000     
  -1.8133333333333335E-005     0.0000000000000000     
  -1.7933333333333337E-005     0.0000000000000000     
  -1.7733333333333335E-005     0.0000000000000000     
  -1.7533333333333337E-005     0.0000000000000000     
  -1.7333333333333336E-005     0.0000000000000000     
  -1.7133333333333334E-005     0.0000000000000000     
  -1.6933333333333336E-005     0.0000000000000000     
  -1.6733333333333335E-005     0.0000000000000000     
  -1.6533333333333337E-005     0.0000000000000000     
  -1.6333333333333335E-005     0.0000000000000000     
  -1.6133333333333337E-005     0.0000000000000000     
  -1.5933333333333336E-005     8.8035709928436144E-042
  -1.5733333333333334E-005     2.1379124284282781E-041
  -1.5533333333333336E-005     3.3210449641503323E-041
  -1.5333333333333334E-005     2.4883035763491884E-041
  -1.5133333333333336E-005     6.3805500241168094E-042
  -1.4933333333333335E-005    -8.5647847247129008E-041
  -1.4733333333333337E-005    -2.7490328461633912E-040
  -1.4533333333333335E-005    -2.1876426139913715E-040
  -1.4333333333333337E-005     4.1074907322816871E-041
  -1.4133333333333336E-005     4.8974293424289904E-040
  -1.3933333333333334E-005     1.0931454044896444E-039
  -1.3733333333333336E-005     1.4826516075234832E-039
  -1.3533333333333335E-005    -1.4783794994039445E-040
  -1.3333333333333337E-005    -4.1741038847607504E-039
  -1.3133333333333335E-005    -1.5488973721538347E-038
  -1.2933333333333337E-005    -3.4913995135047730E-038
  -1.2733333333333336E-005    -6.8389943550936297E-038
  -1.2533333333333338E-005    -1.0811723993681598E-037
  -1.2333333333333336E-005    -1.2523263805132349E-037
  -1.2133333333333335E-005    -8.9542923565669515E-038
  -1.1933333333333337E-005     4.4988682275231659E-038
  -1.1733333333333335E-005     3.6722830635067179E-037
  -1.1533333333333337E-005     9.2507278900747540E-037
  -1.1333333333333336E-005     1.7308623217923510E-036
  -1.1133333333333337E-005     2.6395307884225181E-036
  -1.0933333333333336E-005     3.2584851345915654E-036
  -1.0733333333333334E-005     2.8382741100691570E-036
  -1.0533333333333336E-005     2.3626314826669426E-037
  -1.0333333333333335E-005    -5.9467220601970088E-036
  -1.0133333333333337E-005    -1.6916203655279133E-035
  -9.9333333333333354E-006    -3.2789769423429148E-035
  -9.7333333333333373E-006    -5.1203334022234475E-035
  -9.5333333333333358E-006    -6.5565091809166533E-035
  -9.3333333333333343E-006    -6.3454097784780148E-035
  -9.1333333333333362E-006    -2.6149933486082448E-035
  -8.9333333333333348E-006     6.9190752716322105E-035
  -8.7333333333333367E-006     2.4284281004678874E-034
  -8.5333333333333352E-006     4.9962727057246550E-034
  -8.3333333333333371E-006     8.0935950845682671E-034
  -8.1333333333333356E-006     1.0828572681914811E-033
  -7.9333333333333376E-006     1.1501741123635290E-033
  -7.7333333333333361E-006     7.5358653745696250E-034
  -7.5333333333333346E-006    -4.2615071747322322E-034
  -7.3333333333333365E-006    -2.6882696552727582E-033
  -7.1333333333333351E-006    -6.1561762358045483E-033
  -6.9333333333333370E-006    -1.0542821583202908E-032
  -6.7333333333333355E-006    -1.4863138168508241E-032
  -6.5333333333333374E-006    -1.7167523708657501E-032
  -6.3333333333333359E-006    -1.4431830458751830E-032
  -6.1333333333333379E-006    -2.8000629323620573E-033
  -5.9333333333333364E-006     2.1590334886946253E-032
  -5.7333333333333349E-006     6.1002710747464224E-032
  -5.5333333333333368E-006     1.1366012471085672E-031
  -5.3333333333333354E-006     1.7070706265467767E-031
  -5.1333333333333373E-006     2.1326714212666394E-031
  -4.9333333333333358E-006     2.1086317204217136E-031
  -4.7333333333333377E-006     1.2302972823817970E-031
  -4.5333333333333362E-006    -9.3728031370231510E-032
  -4.3333333333333348E-006    -4.7171895474248932E-031
  -4.1333333333333367E-006    -1.0098723217739254E-030
  -3.9333333333333352E-006    -1.6452910688018787E-030
  -3.7333333333333371E-006    -2.2240790980006580E-030
  -3.5333333333333356E-006    -2.4817761620665634E-030
  -3.3333333333333376E-006    -2.0485540018740945E-030
  -3.1333333333333361E-006    -4.9738171801240472E-031
  -2.9333333333333346E-006     2.5478250302872171E-030
  -2.7333333333333365E-006     7.2353685629270284E-030
  -2.5333333333333384E-006     1.3249389893982675E-029
  -2.3333333333333336E-006     1.9551329058506326E-029
  -2.1333333333333355E-006     2.4173048577514565E-029
  -1.9333333333333374E-006     2.4173364367360352E-029
  -1.7333333333333393E-006     1.5897013494350082E-029
  -1.5333333333333345E-006    -4.3253310851294687E-030
  -1.3333333333333364E-006    -3.8945506321390793E-029
  -1.1333333333333383E-006    -8.7457725840531323E-029
  -9.3333333333333343E-007    -1.4435970859675628E-028
  -7.3333333333333535E-007    -1.9727454212851964E-028
  -5.3333333333333726E-007    -2.2596604699084617E-028
  -3.3333333333333918E-007    -2.0320385336658894E-028
  -1.3333333333333432E-007    -9.8501540725145224E-029
   6.6666666666663770E-008     1.1446530847346380E-028
   2.6666666666666185E-007     4.4657582602702623E-028
   4.6666666666666672E-007     8.7902650132014500E-028
   6.6666666666666480E-007     1.3485904728033635E-027
   8.6666666666666289E-007     1.7366148625750303E-027
   1.0666666666666610E-006     1.8676439392004433E-027
   1.2666666666666658E-006     1.5244585136252636E-027
   1.4666666666666639E-006     4.8573917309662539E-028
   1.6666666666666620E-006    -1.4102744382335615E-027
   1.8666666666666669E-006    -4.1783912883140561E-027
   2.0666666666666649E-006    -7.5860853291638632E-027
   2.2666666666666630E-006    -1.1061429239959135E-026
   2.4666666666666611E-006    -1.3641466016691900E-026
   2.6666666666666660E-006    -1.4001161318789643E-026
   2.8666666666666641E-006    -1.0604415789197817E-026
   3.0666666666666622E-006    -2.0087835521028273E-027
   3.2666666666666602E-006     1.2669079811740153E-026
   3.4666666666666651E-006     3.3161305654818567E-026
   3.6666666666666632E-006     5.7419689754068186E-026
   3.8666666666666613E-006     8.1101941800866832E-026
   4.0666666666666661E-006     9.7382482662623325E-026
   4.2666666666666642E-006     9.7328601784554222E-026
   4.4666666666666623E-006     7.1066860696903018E-026
   4.6666666666666604E-006     9.8791904672133449E-027
   4.8666666666666652E-006    -9.0802396158987288E-026
   5.0666666666666633E-006    -2.2778958535942470E-025
   5.2666666666666614E-006    -3.8652691256252540E-025
   5.4666666666666663E-006    -5.3841789124636761E-025
   5.6666666666666644E-006    -6.4029806288804312E-025
   5.8666666666666624E-006    -6.3736556770068200E-025
   6.0666666666666605E-006    -4.7069476099726597E-025
   6.2666666666666654E-006    -8.9893971847105039E-026
   6.4666666666666635E-006     5.2953785474191226E-025
   6.6666666666666616E-006     1.3660089117710927E-024
   6.8666666666666664E-006     2.3323145036793682E-024
   7.0666666666666645E-006     3.2619760864507985E-024
   7.2666666666666626E-006     3.9078308854652344E-024
   7.4666666666666607E-006     3.9595278170169749E-024
   7.6666666666666655E-006     3.0853638449778632E-024
   7.8666666666666636E-006     1.0007709878563543E-024
   8.0666666666666617E-006    -2.4394543340028706E-024
   8.2666666666666598E-006    -7.1351544451326015E-024
   8.4666666666666647E-006    -1.2639165280347926E-023
   8.6666666666666627E-006    -1.8085967206844665E-023
   8.8666666666666608E-006    -2.2182096397434495E-023
   9.0666666666666657E-006    -2.3290671371601580E-023
   9.2666666666666638E-006    -1.9636289343670009E-023
   9.4666666666666619E-006    -9.6415251176744571E-024
   9.6666666666666599E-006     7.6181954287329859E-024
   9.8666666666666648E-006     3.1887538704055875E-023
   1.0066666666666663E-005     6.1215917100947451E-023
   1.0266666666666661E-005     9.1574228388346468E-023
   1.0466666666666666E-005     1.1675043952032038E-022
   1.0666666666666664E-005     1.2867693019996181E-022
   1.0866666666666662E-005     1.1831805200478091E-022
   1.1066666666666660E-005     7.7182692241303277E-023
   1.1266666666666665E-005    -5.7934048114246116E-025
   1.1466666666666663E-005    -1.1568273651643364E-022
   1.1666666666666661E-005    -2.6116861118262615E-022
   1.1866666666666666E-005    -4.2034572117548608E-022
   1.2066666666666664E-005    -5.6586466591557377E-022
   1.2266666666666662E-005    -6.6062927167361409E-022
   1.2466666666666660E-005    -6.6117364110272647E-022
   1.2666666666666665E-005    -5.2389178002719233E-022
   1.2866666666666663E-005    -2.1407977889308505E-022
   1.3066666666666661E-005     2.8285214427003237E-022
   1.3266666666666666E-005     9.4937347446289806E-022
   1.3466666666666664E-005     1.7251682348198283E-021
   1.3666666666666662E-005     2.5005947322238489E-021
   1.3866666666666660E-005     3.1174035467188960E-021
   1.4066666666666665E-005     3.3797066792825437E-021
   1.4266666666666663E-005     3.0773705627651346E-021
   1.4466666666666661E-005     2.0224012566122226E-021
   1.4666666666666666E-005     9.6484842389032753E-023
   1.4866666666666664E-005    -2.6951952428603480E-021
   1.5066666666666662E-005    -6.1720710567702627E-021
   1.5266666666666661E-005    -9.9394979402475256E-021
   1.5466666666666665E-005    -1.3376572979846863E-020
   1.5666666666666663E-005    -1.5664002551883999E-020
   1.5866666666666662E-005    -1.5863130038957196E-020
   1.6066666666666660E-005    -1.3051567887434186E-020
   1.6266666666666665E-005    -6.5118320008458261E-021
   1.6466666666666663E-005     4.0427134113969501E-021
   1.6666666666666661E-005     1.8234089138620826E-020
   1.6866666666666666E-005     3.4821144268185663E-020
   1.7066666666666664E-005     5.1589599618189877E-020
   1.7266666666666662E-005     6.5388059986106159E-020
   1.7466666666666660E-005     7.2361374473342723E-020
   1.7666666666666665E-005     6.8414321610819051E-020
   1.7866666666666663E-005     4.9906232322836744E-020
   1.8066666666666661E-005     1.4532188741361240E-020
   1.8266666666666666E-005    -3.7707599300077783E-020
   1.8466666666666664E-005    -1.0360411828732083E-019
   1.8666666666666662E-005    -1.7610207286578442E-019
   1.8866666666666660E-005    -2.4415438414078611E-019
   1.9066666666666665E-005    -2.9328500497373013E-019
   1.9266666666666663E-005    -3.0702142154873914E-019
   1.9466666666666661E-005    -2.6925025055714477E-019
   1.9666666666666666E-005    -1.6739219932460597E-019
   1.9866666666666664E-005     3.9052142594528964E-021
   2.0066666666666662E-005     2.3906844610568891E-019
   2.0266666666666660E-005     5.1859372381722107E-019
   2.0466666666666665E-005     8.0756204743418264E-019
   2.0666666666666663E-005     1.0565068357096720E-018
   2.0866666666666661E-005     1.2053197357085331E-018
   2.1066666666666659E-005     1.1905487995768580E-018
   2.1266666666666664E-005     9.5592476629284204E-019
   2.1466666666666662E-005     4.6528486867805928E-019
   2.1666666666666660E-005    -2.8368045840461552E-019
   2.1866666666666665E-005    -1.2471368220787086E-018
   2.2066666666666663E-005    -2.3270606185309156E-018
   2.2266666666666661E-005    -3.3703927683739902E-018
   2.2466666666666659E-005    -4.1780060015870123E-018
   2.2666666666666664E-005    -4.5251541483560997E-018
   2.2866666666666662E-005    -4.1934970560939214E-018
   2.3066666666666660E-005    -3.0126812327851542E-018
   2.3266666666666665E-005    -9.0701623226675124E-019
   2.3466666666666663E-005     2.0596131911044074E-018
   2.3666666666666661E-005     5.6493735058259612E-018
   2.3866666666666660E-005     9.4363257282529096E-018
   2.4066666666666664E-005     1.2821566814941030E-017
   2.4266666666666662E-005     1.5084280453917270E-017
   2.4466666666666661E-005     1.5470866671821684E-017
   2.4666666666666665E-005     1.3318061688590358E-017
   2.4866666666666663E-005     8.1985089533915880E-018
   2.5066666666666662E-005     6.9601362050160205E-020
   2.5266666666666660E-005    -1.0600052320999019E-017
   2.5466666666666665E-005    -2.2755997805906456E-017
   2.5666666666666663E-005    -3.4764186504801833E-017
   2.5866666666666661E-005    -4.4521342386606057E-017
   2.6066666666666666E-005    -4.9680992731147154E-017
   2.6266666666666664E-005    -4.7989453973621289E-017
   2.6466666666666662E-005    -3.7704648438715853E-017
   2.6666666666666660E-005    -1.8048199736920129E-017
   2.6866666666666665E-005     1.0379303694600387E-017
   2.7066666666666663E-005     4.5303408275893493E-017
   2.7266666666666661E-005     8.2687508994581306E-017
   2.7466666666666666E-005     1.1692534631261865E-016
   2.7666666666666664E-005     1.4135987961979213E-016
   2.7866666666666662E-005     1.4912938387016813E-016
   2.8066666666666667E-005     1.3428450801854454E-016
   2.8266666666666658E-005     9.3057030087096303E-017
   2.8466666666666663E-005     2.5101622215104161E-017
   2.8666666666666668E-005    -6.5511733261599142E-017
   2.8866666666666659E-005    -1.6979374996773316E-016
   2.9066666666666664E-005    -2.7403857957510248E-016
   2.9266666666666669E-005    -3.6088693589557233E-016
   2.9466666666666660E-005    -4.1129465141963795E-016
   2.9666666666666665E-005    -4.0730732878000284E-016
   2.9866666666666656E-005    -3.3537572789636466E-016
   3.0066666666666661E-005    -1.8978505959132040E-016
   3.0266666666666666E-005     2.4358881537093238E-017
   3.0466666666666657E-005     2.8920999876712954E-016
   3.0666666666666662E-005     5.7392752402256820E-016
   3.0866666666666667E-005     8.3655261147701314E-016
   3.1066666666666658E-005     1.0282327589550922E-015
   3.1266666666666663E-005     1.0996661988968071E-015
   3.1466666666666668E-005     1.0092255559219461E-015
   3.1666666666666659E-005     7.3180299677523713E-016
   3.1866666666666664E-005     2.6706008888550843E-016
   3.2066666666666656E-005    -3.5445338063774469E-016
   3.2266666666666660E-005    -1.0688595354663681E-015
   3.2466666666666665E-005    -1.7814897244828064E-015
   3.2666666666666657E-005    -2.3751665009817951E-015
   3.2866666666666661E-005    -2.7242170573761244E-015
   3.3066666666666666E-005    -2.7132307017428024E-015
   3.3266666666666658E-005    -2.2585513724458295E-015
   3.3466666666666662E-005    -1.3295632297757543E-015
   3.3666666666666667E-005     3.3820743995859436E-017
   3.3866666666666659E-005     1.7112514947552347E-015
   3.4066666666666664E-005     3.5030102583192818E-015
   3.4266666666666668E-005     5.1443876483143379E-015
   3.4466666666666660E-005     6.3340458124701732E-015
   3.4666666666666665E-005     6.7748459845629174E-015
   3.4866666666666656E-005     6.2232559781122677E-015
   3.5066666666666661E-005     4.5411424366116813E-015
   3.5266666666666666E-005     1.7419951752067431E-015
   3.5466666666666657E-005    -1.9771981668176280E-015
   3.5666666666666662E-005    -6.2267970087340256E-015
   3.5866666666666667E-005    -1.0444533877204859E-014
   3.6066666666666658E-005    -1.3947843133131947E-014
   3.6266666666666663E-005    -1.6017005820678534E-014
   3.6466666666666668E-005    -1.6002323632745909E-014
   3.6666666666666659E-005    -1.3443208803435723E-014
   3.6866666666666664E-005    -8.1825673926419469E-015
   3.7066666666666669E-005    -4.5718674683896299E-016
   3.7266666666666660E-005     9.0553866376826048E-015
   3.7466666666666665E-005     1.9250009717623583E-014
   3.7666666666666656E-005     2.8677496304298323E-014
   3.7866666666666661E-005     3.5699812523648366E-014
   3.8066666666666666E-005     3.8707062733314210E-014
   3.8266666666666657E-005     3.6374587409310289E-014
   3.8466666666666662E-005     2.7927947814293451E-014
   3.8666666666666667E-005     1.3375868745204057E-014
   3.8866666666666658E-005    -6.3315601593573922E-015
   3.9066666666666663E-005    -2.9258737677605517E-014
   3.9266666666666668E-005    -5.2583599971356641E-014
   3.9466666666666659E-005    -7.2852362169762240E-014
   3.9666666666666664E-005    -8.6380570924628643E-014
   3.9866666666666655E-005    -8.9767001822060813E-014
   4.0066666666666660E-005    -8.0462978221984839E-014
   4.0266666666666665E-005    -5.7320862323565233E-014
   4.0466666666666656E-005    -2.1034473108975494E-014
   4.0666666666666661E-005     2.5615083691264395E-014
   4.0866666666666666E-005     7.7780800284931364E-014
   4.1066666666666657E-005     1.2888348071353840E-013
   4.1266666666666662E-005     1.7126369793342920E-013
   4.1466666666666667E-005     1.9711129780753320E-013
   4.1666666666666658E-005     1.9958308392826757E-013
   4.1866666666666663E-005     1.7397556745893800E-013
   4.2066666666666668E-005     1.1878967554426950E-013
   4.2266666666666660E-005     3.6511959058172605E-014
   4.2466666666666664E-005    -6.6049563074749054E-014
   4.2666666666666656E-005    -1.7799873759712918E-013
   4.2866666666666661E-005    -2.8521357496209741E-013
   4.3066666666666665E-005    -3.7181576930975031E-013
   4.3266666666666657E-005    -4.2213326818446525E-013
   4.3466666666666662E-005    -4.2295292281353294E-013
   4.3666666666666666E-005    -3.6578599504749949E-013
   4.3866666666666658E-005    -2.4882566595235626E-013
   4.4066666666666663E-005    -7.8270011729233959E-014
   4.4266666666666667E-005     1.3127364536317442E-013
   4.4466666666666659E-005     3.5749976207992408E-013
   4.4666666666666664E-005     5.7229803746918901E-013
   4.4866666666666655E-005     7.4473896194606891E-013
   4.5066666666666660E-005     8.4489582673805750E-013
   4.5266666666666665E-005     8.4809307612182385E-013
   4.5466666666666656E-005     7.3905358376831373E-013
   4.5666666666666661E-005     5.1535990590852504E-013
   4.5866666666666666E-005     1.8965665933632806E-013
   4.6066666666666657E-005    -2.0988157708675016E-013
   4.6266666666666662E-005    -6.4111960278636735E-013
   4.6466666666666667E-005    -1.0516327574483563E-012
   4.6666666666666658E-005    -1.3842677116739471E-012
   4.6866666666666663E-005    -1.5840978532122514E-012
   4.7066666666666668E-005    -1.6060255919007021E-012
   4.7266666666666659E-005    -1.4221033110506062E-012
   4.7466666666666664E-005    -1.0275643981807829E-012
   4.7666666666666655E-005    -4.4459748607589792E-013
   4.7866666666666660E-005     2.7691927799798919E-013
   4.8066666666666665E-005     1.0622125491802964E-012
   4.8266666666666656E-005     1.8180180942339040E-012
   4.8466666666666661E-005     2.4422228111825473E-012
   4.8666666666666666E-005     2.8359066727076078E-012
   4.8866666666666657E-005     2.9165358331815461E-012
   4.9066666666666662E-005     2.6307710124568552E-012
   4.9266666666666667E-005     1.9652050201752439E-012
   4.9466666666666658E-005     9.5341892487425944E-013
   4.9666666666666663E-005    -3.2199822918860859E-013
   4.9866666666666655E-005    -1.7333475896966025E-012
   5.0066666666666659E-005    -3.1178988065307739E-012
   5.0266666666666664E-005    -4.2936747662416434E-012
   5.0466666666666656E-005    -5.0797296939352709E-012
   5.0666666666666660E-005    -5.3190016091475008E-012
   5.0866666666666665E-005    -4.9012845283045103E-012
   5.1066666666666657E-005    -3.7835530954786636E-012
   5.1266666666666661E-005    -2.0048356239669896E-012
   5.1466666666666666E-005     3.0687587194559120E-013
   5.1666666666666658E-005     2.9375625218338653E-012
   5.1866666666666662E-005     5.6009525142171208E-012
   5.2066666666666667E-005     7.9629800861799241E-012
   5.2266666666666659E-005     9.6755392828545922E-012
   5.2466666666666664E-005     1.0416851986894276E-011
   5.2666666666666655E-005     9.9346837465968796E-012
   5.2866666666666660E-005     8.0877652730206679E-012
   5.3066666666666665E-005     4.8803156850619622E-012
   5.3266666666666656E-005     4.8464534911757287E-013
   5.3466666666666661E-005    -4.7525968176131846E-012
   5.3666666666666666E-005    -1.0323767890371976E-011
   5.3866666666666657E-005    -1.5594657530213365E-011
   5.4066666666666662E-005    -1.9859341455242347E-011
   5.4266666666666667E-005    -2.2412387851251114E-011
   5.4466666666666658E-005    -2.2632855105869939E-011
   5.4666666666666663E-005    -2.0072353546552710E-011
   5.4866666666666668E-005    -1.4537637537412289E-011
   5.5066666666666659E-005    -6.1573303977115336E-012
   5.5266666666666664E-005     4.5775667110448140E-012
   5.5466666666666655E-005     1.6808447716271926E-011
   5.5666666666666660E-005     2.9345718728828784E-011
   5.5866666666666665E-005     4.0750107823799452E-011
   5.6066666666666656E-005     4.9456920043087026E-011
   5.6266666666666661E-005     5.3936190907629092E-011
   5.6466666666666666E-005     5.2876480145260024E-011
   5.6666666666666657E-005     4.5375103096319301E-011
   5.6866666666666662E-005     3.1114094775148717E-011
   5.7066666666666667E-005     1.0499237724918672E-011
   5.7266666666666658E-005    -1.5260027498104203E-011
   5.7466666666666663E-005    -4.4148969521603431E-011
   5.7666666666666654E-005    -7.3437545774602653E-011
   5.7866666666666659E-005    -9.9866988318595934E-011
   5.8066666666666664E-005    -1.1992789323716970E-010
   5.8266666666666655E-005    -1.3021329465574765E-010
   5.8466666666666660E-005    -1.2781896940995366E-010
   5.8666666666666665E-005    -1.1075352327136705E-010
   5.8866666666666656E-005    -7.8313569878585775E-011
   5.9066666666666661E-005    -3.1376354044994756E-011
   5.9266666666666666E-005     2.7435935572839057E-011
   5.9466666666666657E-005     9.3758751744258448E-011
   5.9666666666666662E-005     1.6168012936204961E-010
   5.9866666666666667E-005     2.2413605773613243E-010
   6.0066666666666659E-005     2.7349331121408702E-010
   6.0266666666666663E-005     3.0228376249011475E-010
   6.0466666666666655E-005     3.0403306817518421E-010
   6.0666666666666660E-005     2.7410703248395705E-010
   6.0866666666666664E-005     2.1048724211397521E-010
   6.1066666666666656E-005     1.1438234388053642E-010
   6.1266666666666661E-005    -9.4138951885559136E-012
   6.1466666666666665E-005    -1.5249084037128746E-010
   6.1666666666666657E-005    -3.0316440522613148E-010
   6.1866666666666662E-005    -4.4721011946070406E-010
   6.2066666666666666E-005    -5.6896262584379472E-010
   6.2266666666666658E-005    -6.5271448958317610E-010
   6.2466666666666663E-005    -6.8431038788321510E-010
   6.2666666666666668E-005    -6.5279693766954960E-010
   6.2866666666666659E-005    -5.5196791045056539E-010
   6.3066666666666664E-005    -3.8163274000094754E-010
   6.3266666666666655E-005    -1.4844792123735880E-010
   6.3466666666666660E-005     1.3382808089752040E-010
   6.3666666666666665E-005     4.4475052697917556E-010
   6.3866666666666656E-005     7.5831475051342739E-010
   6.4066666666666661E-005     1.0447670173986471E-009
   6.4266666666666666E-005     1.2730015027982775E-009
   6.4466666666666657E-005     1.4133786808726076E-009
   6.4666666666666662E-005     1.4407412838302636E-009
   6.4866666666666667E-005     1.3373591951672070E-009
   6.5066666666666658E-005     1.0955132830108756E-009
   6.5266666666666663E-005     7.1943351795840051E-010
   6.5466666666666654E-005     2.2633849566917307E-010
   6.5666666666666659E-005    -3.5362078001717483E-010
   6.5866666666666664E-005    -9.7862232525171767E-010
   6.6066666666666655E-005    -1.5976513789098675E-009
   6.6266666666666660E-005    -2.1540936550821343E-009
   6.6466666666666665E-005    -2.5902286790671293E-009
   6.6666666666666656E-005    -2.8523067656607763E-009
   6.6866666666666661E-005    -2.8958058317366405E-009
   6.7066666666666666E-005    -2.6904158415327648E-009
   6.7266666666666657E-005    -2.2242737783294898E-009
   6.7466666666666662E-005    -1.5070028270577858E-009
   6.7666666666666667E-005    -5.7116900178053232E-010
   6.7866666666666658E-005     5.2812059263955419E-010
   6.8066666666666663E-005     1.7156172734401440E-009
   6.8266666666666655E-005     2.9003046644751303E-009
   6.8466666666666659E-005     3.9815448991110201E-009
   6.8666666666666664E-005     4.8566325102322833E-009
   6.8866666666666656E-005     5.4292358007816460E-009
   6.9066666666666660E-005     5.6180841260478056E-009
   6.9266666666666665E-005     5.3651978200254576E-009
   6.9466666666666657E-005     4.6429330863651427E-009
   6.9666666666666661E-005     3.4591608084668525E-009
   6.9866666666666666E-005     1.8600074176946966E-009
   7.0066666666666658E-005    -7.0262445011853247E-011
   7.0266666666666662E-005    -2.2124324383633947E-009
   7.0466666666666654E-005    -4.4185701105839133E-009
   7.0666666666666659E-005    -6.5210497928379016E-009
   7.0866666666666664E-005    -8.3438529297297360E-009
   7.1066666666666655E-005    -9.7154488680009800E-009
   7.1266666666666660E-005    -1.0482371067324060E-008
   7.1466666666666665E-005    -1.0522520106955840E-008
   7.1666666666666656E-005    -9.7571723915546031E-009
   7.1866666666666661E-005    -8.1607338688102077E-009
   7.2066666666666666E-005    -5.7673679794540184E-009
   7.2266666666666657E-005    -2.6738189715813004E-009
   7.2466666666666662E-005     9.6202414370644804E-010
   7.2666666666666667E-005     4.9270129710414201E-009
   7.2866666666666658E-005     8.9629759735315335E-009
   7.3066666666666663E-005     1.2780914368790788E-008
   7.3266666666666654E-005     1.6078500040797991E-008
   7.3466666666666659E-005     1.8559985619834366E-008
   7.3666666666666664E-005     1.9957397425562418E-008
   7.3866666666666655E-005     2.0051794171943199E-008
   7.4066666666666660E-005     1.8693243229607016E-008
   7.4266666666666665E-005     1.5818156674152140E-008
   7.4466666666666656E-005     1.1462664291110543E-008
   7.4666666666666661E-005     5.7708129334978857E-009
   7.4866666666666666E-005    -1.0034483349674418E-009
   7.5066666666666657E-005    -8.5013036502992007E-009
   7.5266666666666662E-005    -1.6271612395043233E-008
   7.5466666666666653E-005    -2.3791068447413529E-008