  -3.3333333333333335E-005     0.0000000000000000     
  -3.3133333333333337E-005     0.0000000000000000     
  -3.2933333333333332E-005     0.0000000000000000     
  -3.2733333333333334E-005     0.0000000000000000     
  -3.2533333333333336E-005     0.0000000000000000     
  -3.2333333333333338E-005     0.0000000000000000     
  -3.2133333333333333E-005     0.0000000000000000     
  -3.1933333333333335E-005     0.0000000000000000     
  -3.1733333333333337E-005     0.0000000000000000     
  -3.1533333333333332E-005     0.0000000000000000     
  -3.1333333333333334E-005     0.0000000000000000     
  -3.1133333333333336E-005     0.0000000000000000     
  -3.0933333333333338E-005     0.0000000000000000     
  -3.0733333333333333E-005     0.0000000000000000     
  -3.0533333333333335E-005     0.0000000000000000     
  -3.0333333333333337E-005     0.0000000000000000     
  -3.0133333333333335E-005     0.0000000000000000     
  -2.9933333333333334E-005     0.0000000000000000     
  -2.9733333333333336E-005     0.0000000000000000     
  -2.9533333333333334E-005     0.0000000000000000     
  -2.9333333333333336E-005     0.0000000000000000     
  -2.9133333333333334E-005     0.0000000000000000     
  -2.8933333333333336E-005     0.0000000000000000     
  -2.8733333333333335E-005     0.0000000000000000     
  -2.8533333333333333E-005     0.0000000000000000     
  -2.8333333333333335E-005     0.0000000000000000     
  -2.8133333333333337E-005     0.0000000000000000     
  -2.7933333333333336E-005     0.0000000000000000     
  -2.7733333333333334E-005     0.0000000000000000     
  -2.7533333333333336E-005     0.0000000000000000     
  -2.7333333333333335E-005     0.0000000000000000     
  -2.7133333333333333E-005     0.0000000000000000     
  -2.6933333333333335E-005     0.0000000000000000     
  -2.6733333333333337E-005     0.0000000000000000     
  -2.6533333333333336E-005     0.0000000000000000     
  -2.6333333333333334E-005     0.0000000000000000     
  -2.6133333333333336E-005     0.0000000000000000     
  -2.5933333333333335E-005     0.0000000000000000     
  -2.5733333333333333E-005     0.0000000000000000     
  -2.5533333333333335E-005     0.0000000000000000     
  -2.5333333333333337E-005     0.0000000000000000     
  -2.5133333333333336E-005    -2.2518658664150595E-040
  -2.4933333333333334E-005    -9.1293666520567121E-040
  -2.4733333333333336E-005    -4.1508991047666388E-039
  -2.4533333333333334E-005    -1.0374973189671833E-038
  -2.4333333333333333E-005    -1.7528524020342260E-038
  -2.4133333333333335E-005    -1.0792937115793308E-038
  -2.3933333333333337E-005     4.4495047101249160E-038
  -2.3733333333333335E-005     2.8141826908149202E-037
  -2.3533333333333334E-005     9.6065095013155395E-037
  -2.3333333333333336E-005     2.4873730797302643E-036
  -2.3133333333333338E-005     5.1520718798000924E-036
  -2.2933333333333336E-005     8.1704368208090255E-036
  -2.2733333333333335E-005     7.2497959115079254E-036
  -2.2533333333333337E-005    -9.9655114728276216E-036
  -2.2333333333333335E-005    -6.9879180971328115E-035
  -2.2133333333333334E-005    -2.1520536628014506E-034
  -2.1933333333333336E-005    -4.8886008086234068E-034
  -2.1733333333333338E-005    -8.7019533762453345E-034
  -2.1533333333333336E-005    -1.1215859390021451E-033
  -2.1333333333333335E-005    -5.1521681340123621E-034
  -2.1133333333333337E-005     2.5074632837565789E-033
  -2.0933333333333335E-005     1.0471293685818001E-032
  -2.0733333333333334E-005     2.6118754151192037E-032
  -2.0533333333333336E-005     4.9569726541094813E-032
  -2.0333333333333337E-005     7.1889605809931107E-032
  -2.0133333333333336E-005     6.4365795877019342E-032
  -1.9933333333333334E-005    -3.3886129344939930E-032
  -1.9733333333333336E-005    -3.1994033542418996E-031
  -1.9533333333333335E-005    -9.0079689834633730E-031
  -1.9333333333333333E-005    -1.8023326268410925E-030
  -1.9133333333333335E-005    -2.7771564778407156E-030
  -1.8933333333333337E-005    -3.0062441656691088E-030
  -1.8733333333333336E-005    -7.8362507725986299E-031
  -1.8533333333333334E-005     6.5458499235835783E-030
  -1.8333333333333336E-005     2.1876608689185347E-029
  -1.8133333333333335E-005     4.6136398046901231E-029
  -1.7933333333333337E-005     7.3960353320710024E-029
  -1.7733333333333335E-005     8.7442149199934739E-029
  -1.7533333333333337E-005     5.0156696232519176E-029
  -1.7333333333333336E-005    -9.3018668726357706E-029
  -1.7133333333333334E-005    -4.0081093834377047E-028
  -1.6933333333333336E-005    -8.9348168902732028E-028
  -1.6733333333333335E-005    -1.4759612177116278E-027
  -1.6533333333333337E-005    -1.8342997845718281E-027
  -1.6333333333333335E-005    -1.3464627979037786E-027
  -1.6133333333333337E-005     9.0290764584216440E-028
  -1.5933333333333336E-005     5.8649654818243791E-027
  -1.5733333333333334E-005     1.3874009120122349E-026
  -1.5533333333333336E-005     2.3527691877679276E-026
  -1.5333333333333334E-005     3.0268999573830379E-026
  -1.5133333333333336E-005     2.5277996245679889E-026
  -1.4933333333333335E-005    -4.1363978189822646E-027
  -1.4733333333333337E-005    -7.0953054345456655E-026
  -1.4533333333333335E-005    -1.7999765982203720E-025
  -1.4333333333333337E-005    -3.1416167370113845E-025
  -1.4133333333333336E-005    -4.1775267774332814E-025
  -1.3933333333333334E-005    -3.8433935034433750E-025
  -1.3733333333333336E-005    -6.2384679412817007E-026
  -1.3533333333333335E-005     7.0366637361036476E-025
  -1.3333333333333337E-005     1.9808970563487015E-024
  -1.3133333333333335E-005     3.6016580504202275E-024
  -1.2933333333333337E-005     4.9913804057955718E-024
  -1.2733333333333336E-005     5.0449508859870208E-024
  -1.2533333333333338E-005     2.1789731131754903E-024
  -1.2333333333333336E-005    -5.2783592729547045E-024
  -1.2133333333333335E-005    -1.8221321017207585E-023
  -1.1933333333333337E-005    -3.5412906619018337E-023
  -1.1733333333333335E-005    -5.1894459810718055E-023
  -1.1533333333333337E-005    -5.7797629903952001E-023
  -1.1333333333333336E-005    -3.8618352590631763E-023
  -1.1133333333333337E-005     2.1730750013421361E-023
  -1.0933333333333336E-005     1.3397589475022479E-022
  -1.0733333333333334E-005     2.9251672493886549E-022
  -1.0533333333333336E-005     4.6228638666083284E-022
  -1.0333333333333335E-005     5.6812542956700128E-022
  -1.0133333333333337E-005     4.9439610695860656E-022
  -9.9333333333333354E-006     1.0442415924739717E-022
  -9.7333333333333373E-006    -7.1190897848197383E-022
  -9.5333333333333358E-006    -1.9605622284884367E-021
  -9.3333333333333343E-006    -3.4467736803333567E-021
  -9.1333333333333362E-006    -4.6891148466869503E-021
  -8.9333333333333348E-006    -4.8936702021043851E-021
  -8.7333333333333367E-006    -3.0508975338523999E-021
  -8.5333333333333352E-006     1.7876595417671644E-021
  -8.3333333333333371E-006     1.0031579796077724E-020
  -8.1333333333333356E-006     2.0925373061296491E-020
  -7.9333333333333376E-006     3.1934143431213261E-020
  -7.7333333333333361E-006     3.8420201377500574E-020
  -7.5333333333333346E-006     3.3975504475986399E-020
  -7.3333333333333365E-006     1.1765894933737969E-020
  -7.1333333333333351E-006    -3.2925746449553749E-020
  -6.9333333333333370E-006    -9.9140759713249353E-020
  -6.7333333333333355E-006    -1.7641186176603764E-019
  -6.5333333333333374E-006    -2.4203834365431128E-019
  -6.3333333333333359E-006    -2.6136626349316276E-019
  -6.1333333333333379E-006    -1.9306066676750377E-019
  -5.9333333333333364E-006    -7.0157717881665360E-022
  -5.7333333333333349E-006     3.2959207959200289E-019
  -5.5333333333333368E-006     7.6838665135753657E-019
  -5.3333333333333354E-006     1.2249999621764292E-018
  -5.1333333333333373E-006     1.5411740100493753E-018
  -4.9333333333333358E-006     1.5062389943477523E-018
  -4.7333333333333377E-006     9.0167153635627995E-019
  -4.5333333333333362E-006    -4.2326963749100306E-019
  -4.3333333333333348E-006    -2.4537763249156046E-018
  -4.1333333333333367E-006    -4.9121822007554032E-018
  -3.9333333333333352E-006    -7.1970208431516845E-018
  -3.7333333333333371E-006    -8.4021643939776978E-018
  -3.5333333333333356E-006    -7.4560945124062401E-018
  -3.3333333333333376E-006    -3.4009478283916777E-018
  -3.1333333333333361E-006     4.2079105369074561E-018
  -2.9333333333333346E-006     1.4854696249925165E-017
  -2.7333333333333365E-006     2.6698348463919293E-017
  -2.5333333333333384E-006     3.6462044840926593E-017
  -2.3333333333333336E-006     3.9753125308608842E-017
  -2.1333333333333355E-006     3.1934300352314363E-017
  -1.9333333333333374E-006     9.5409270958234169E-018
  -1.7333333333333393E-006    -2.7950048710706370E-017
  -1.5333333333333345E-006    -7.6413086466041433E-017
  -1.3333333333333364E-006    -1.2603105766662232E-016
  -1.1333333333333383E-006    -1.6159741541705969E-016
  -9.3333333333333343E-007    -1.6473259235931720E-016
  -7.3333333333333535E-007    -1.1822706410706442E-016
  -5.3333333333333726E-007    -1.2124667851539171E-017
  -3.3333333333333918E-007     1.4959594784903269E-016
  -1.3333333333333432E-007     3.4361925737807305E-016
   6.6666666666663770E-008     5.2550768318867444E-016
   2.6666666666666185E-007     6.3378235641466691E-016
   4.6666666666666672E-007     6.0125709641951937E-016
   6.6666666666666480E-007     3.7331989700541196E-016
   8.6666666666666289E-007    -6.9497506140785351E-017
   1.0666666666666610E-006    -6.8985433875857459E-016
   1.2666666666666658E-006    -1.3800175068736320E-015
   1.4666666666666639E-006    -1.9640980923541101E-015
   1.6666666666666620E-006    -2.2222043644869262E-015
   1.8666666666666669E-006    -1.9383530847300028E-015
   2.0666666666666649E-006    -9.6737589494972304E-016
   2.2666666666666630E-006     6.9179641366383625E-016
   2.4666666666666611E-006     2.8362303773415903E-015
   2.6666666666666660E-006     5.0361482588815624E-015
   2.8666666666666641E-006     6.6710288010219560E-015
   3.0666666666666622E-006     7.0373012560504487E-015
   3.2666666666666602E-006     5.5235302106003579E-015
   3.4666666666666651E-006     1.8270281147353123E-015
   3.6666666666666632E-006    -3.8367674135924338E-015
   3.8666666666666613E-006    -1.0597243035400046E-014
   4.0666666666666661E-006    -1.6932089076848797E-014
   4.2666666666666642E-006    -2.0863252590966767E-014
   4.4666666666666623E-006    -2.0359576311247079E-014
   4.6666666666666604E-006    -1.3904445578132016E-014
   4.8666666666666652E-006    -1.1230036921984477E-015
   5.0666666666666633E-006     1.6692200583214123E-014
   5.2666666666666614E-006     3.6346218741279129E-014
   5.4666666666666663E-006     5.2968989848827182E-014
   5.6666666666666644E-006     6.0802749308409457E-014
   5.8666666666666624E-006     5.4519574718370370E-014
   6.0666666666666605E-006     3.0876163921622194E-014
   6.2666666666666654E-006    -9.6498269121520155E-015
   6.4666666666666635E-006    -6.1712560443492946E-014
   6.6666666666666616E-006    -1.1492922179731856E-013
   6.8666666666666664E-006    -1.5506420658448470E-013
   7.0666666666666645E-006    -1.6668172806957142E-013
   7.2666666666666626E-006    -1.3700695785638816E-013
   7.4666666666666607E-006    -6.0313537569682628E-014
   7.6666666666666655E-006     5.8210246211778815E-014
   7.8666666666666636E-006     2.0034971765744066E-013
   8.0666666666666617E-006     3.3564161451495764E-013
   8.2666666666666598E-006     4.2573063047344775E-013
   8.4666666666666647E-006     4.3222337630125091E-013
   8.6666666666666627E-006     3.2697645141264531E-013
   8.8666666666666608E-006     1.0277195018229835E-013
   9.0666666666666657E-006    -2.1838087666956854E-013
   9.2666666666666638E-006    -5.8225372740638513E-013
   9.4666666666666619E-006    -9.0707952008611977E-013
   9.6666666666666599E-006    -1.0968940175718689E-012
   9.8666666666666648E-006    -1.0624974010197187E-012
   1.0066666666666663E-005    -7.4667132211009695E-013
   1.0266666666666661E-005    -1.4821641781681860E-013
   1.0466666666666666E-005     6.6182195867380512E-013
   1.0666666666666664E-005     1.5381432581643926E-012
   1.0866666666666662E-005     2.2778127110825197E-012
   1.1066666666666660E-005     2.6562625034543152E-012
   1.1266666666666665E-005     2.4785829940419160E-012
   1.1466666666666663E-005     1.6369695042339146E-012
   1.1666666666666661E-005     1.6123221478916164E-013
   1.1866666666666666E-005    -1.7523399978964611E-012
   1.2066666666666664E-005    -3.7466766361194780E-012
   1.2266666666666662E-005    -5.3515561219566301E-012
   1.2466666666666660E-005    -6.0717309202632049E-012
   1.2666666666666665E-005    -5.5034988395830244E-012
   1.2866666666666663E-005    -3.4575342236699397E-012
   1.3066666666666661E-005    -5.8829037314178715E-014
   1.3266666666666666E-005     4.2066706781670442E-012
   1.3466666666666664E-005     8.5231010410794679E-012
   1.3666666666666662E-005     1.1864154457509259E-011
   1.3866666666666660E-005     1.3192363599169319E-011
   1.4066666666666665E-005     1.1707843745927491E-011
   1.4266666666666663E-005     7.0970428165144144E-012
   1.4466666666666661E-005    -2.7914821533979753E-013
   1.4666666666666666E-005    -9.3173424315908666E-012
   1.4866666666666664E-005    -1.8266959778588347E-011
   1.5066666666666662E-005    -2.5002035713381294E-011
   1.5266666666666661E-005    -2.7442792544572928E-011
   1.5466666666666665E-005    -2.4058344644447374E-011
   1.5666666666666663E-005    -1.4347737779881036E-011
   1.5866666666666662E-005     8.1989187987564903E-013
   1.6066666666666660E-005     1.9116529046232650E-011
   1.6266666666666665E-005     3.6991204338209857E-011
   1.6466666666666663E-005     5.0241870373553129E-011
   1.6666666666666661E-005     5.4857127192088858E-011
   1.6866666666666666E-005     4.7984728503298206E-011
   1.7066666666666664E-005     2.8825539886829740E-011
   1.7266666666666662E-005    -7.7043448831068420E-013
   1.7466666666666660E-005    -3.6202939767389360E-011
   1.7666666666666665E-005    -7.0634702032645942E-011
   1.7866666666666663E-005    -9.6118020062440447E-011
   1.8066666666666661E-005    -1.0519110776499487E-010
   1.8266666666666666E-005    -9.2664993650887305E-011
   1.8466666666666664E-005    -5.7226082178923050E-011
   1.8666666666666662E-005    -2.4535239409141509E-012
   1.8866666666666660E-005     6.3087634120757968E-011
   1.9066666666666665E-005     1.2686511552634495E-010
   1.9266666666666663E-005     1.7447645447301606E-010
   1.9466666666666661E-005     1.9253880963870916E-010
   1.9666666666666666E-005     1.7185577749173654E-010
   1.9866666666666664E-005     1.1019354817227834E-010
   2.0066666666666662E-005     1.3974150602244564E-011
   2.0266666666666660E-005    -1.0167852216748602E-010
   2.0466666666666665E-005    -2.1482554899986153E-010
   2.0666666666666663E-005    -3.0042988604990501E-010
   2.0866666666666661E-005    -3.3537170078311456E-010
   2.1066666666666659E-005    -3.0385262469185764E-010
   2.1266666666666664E-005    -2.0204658423346918E-010
   2.1466666666666662E-005    -4.0842198218098215E-011
   2.1666666666666660E-005     1.5423214419119635E-010
   2.1866666666666665E-005     3.4632265840350022E-010
   2.2066666666666663E-005     4.9356818694287568E-010
   2.2266666666666661E-005     5.5748188638061784E-010
   2.2466666666666659E-005     5.1185607306086512E-010
   2.2666666666666664E-005     3.5030295954973015E-010
   2.2866666666666662E-005     9.0567941304624070E-011
   2.3066666666666660E-005    -2.2580728703647366E-010
   2.3266666666666665E-005    -5.3907231904443876E-010
   2.3466666666666663E-005    -7.8163331934619802E-010
   2.3666666666666661E-005    -8.9160181790873815E-010
   2.3866666666666660E-005    -8.2700634735943548E-010
   2.4066666666666664E-005    -5.7764728783234383E-010
   2.4266666666666662E-005    -1.7167567946459826E-010
   2.4466666666666661E-005     3.2526497612846441E-010
   2.4666666666666665E-005     8.1915697627104486E-010
   2.4866666666666663E-005     1.2041098729896044E-009
   2.5066666666666662E-005     1.3836326516206128E-009
   2.5266666666666660E-005     1.2926751812404714E-009
   2.5466666666666665E-005     9.1574218443828698E-010
   2.5666666666666663E-005     2.9663051517529938E-010
   2.5866666666666661E-005    -4.6340600638404852E-010
   2.6066666666666666E-005    -1.2201449578217533E-009
   2.6266666666666664E-005    -1.8119967517985960E-009
   2.6466666666666662E-005    -2.0925649293054395E-009
   2.6666666666666660E-005    -1.9639767720409569E-009
   2.6866666666666665E-005    -1.4038628604575077E-009
   2.7066666666666663E-005    -4.7936555180749045E-010
   2.7266666666666661E-005     6.5643266560010202E-010
   2.7466666666666666E-005     1.7870139944911331E-009
   2.7666666666666664E-005     2.6712745924590855E-009
   2.7866666666666662E-005     3.0922781646527558E-009
   2.8066666666666667E-005     2.9065671647514028E-009
   2.8266666666666658E-005     2.0834651963912122E-009
   2.8466666666666663E-005     7.2473513705075399E-010
   2.8666666666666668E-005    -9.4191419447463410E-010
   2.8866666666666659E-005    -2.5970818461439148E-009
   2.9066666666666664E-005    -3.8874944458753672E-009
   2.9266666666666669E-005    -4.4976395559940411E-009
   2.9466666666666660E-005    -4.2213860924048905E-009
   2.9666666666666665E-005    -3.0182226653188274E-009
   2.9866666666666656E-005    -1.0403450576297699E-009
   3.0066666666666661E-005     1.3784278769697399E-009
   3.0266666666666666E-005     3.7737266954418115E-009
   3.0466666666666657E-005     5.6351232042856121E-009
   3.0666666666666662E-005     6.5096010272544136E-009
   3.0866666666666667E-005     6.1039564215504163E-009
   3.1066666666666658E-005     4.3641711076972119E-009
   3.1266666666666663E-005     1.5124098548522697E-009
   3.1466666666666668E-005    -1.9706862670865583E-009
   3.1666666666666659E-005    -5.4203474191508423E-009
   3.1866666666666664E-005    -8.1087267869158876E-009
   3.2066666666666656E-005    -9.3917609732850479E-009
   3.2266666666666660E-005    -8.8533317451607624E-009
   3.2466666666666665E-005    -6.4159344657701131E-009
   3.2666666666666657E-005    -2.3910995729409746E-009
   3.2866666666666661E-005     2.5470443746070471E-009
   3.3066666666666666E-005     7.4670136595176644E-009
   3.3266666666666658E-005     1.1349464744241893E-008
   3.3466666666666662E-005     1.3291408635306167E-008
   3.3666666666666667E-005     1.2705450099458663E-008
   3.3866666666666659E-005     9.4716981389500095E-009
   3.4066666666666664E-005     4.0060347091829885E-009
   3.4266666666666668E-005    -2.7772679267049367E-009
   3.4466666666666660E-005    -9.6103109980515161E-009
   3.4666666666666665E-005    -1.5102984938333670E-008
   3.4866666666666656E-005    -1.8020190934768610E-008
   3.5066666666666661E-005    -1.7550806030416603E-008
   3.5266666666666666E-005    -1.3511317735354806E-008
   3.5466666666666657E-005    -6.4359210173119987E-009
   3.5666666666666662E-005     2.4753669540301862E-009
   3.5866666666666667E-005     1.1551518329171792E-008
   3.6066666666666658E-005     1.8959186789461406E-008
   3.6266666666666663E-005     2.3069821126180440E-008
   3.6466666666666668E-005     2.2812912518646617E-008
   3.6666666666666659E-005     1.7940127792144264E-008
   3.6866666666666664E-005     9.1378186651232784E-009
   3.7066666666666669E-005    -2.0475950729423588E-009
   3.7266666666666660E-005    -1.3470156982995401E-008
   3.7466666666666665E-005    -2.2790211587787504E-008
   3.7666666666666656E-005    -2.7950999080193794E-008
   3.7866666666666661E-005    -2.7630634318141982E-008
   3.8066666666666666E-005    -2.1571916367489958E-008
   3.8266666666666657E-005    -1.0710745941565942E-008
   3.8466666666666662E-005     2.9393557491979962E-009
   3.8666666666666667E-005     1.6640568281573440E-008
   3.8866666666666658E-005     2.7464668269690842E-008
   3.9066666666666663E-005     3.2907249215458164E-008
   3.9266666666666668E-005     3.1457045713223956E-008
   3.9466666666666659E-005     2.2994846686428882E-008
   3.9666666666666664E-005     8.9231014401022860E-009
   3.9866666666666655E-005    -8.0229263832768364E-009
   4.0066666666666660E-005    -2.4267193404277325E-008
   4.0266666666666665E-005    -3.6106663589958331E-008
   4.0466666666666656E-005    -4.0511206823740670E-008
   4.0666666666666661E-005    -3.5844307373091049E-008
   4.0866666666666666E-005    -2.2342666590880899E-008
   4.1066666666666657E-005    -2.2309112384405299E-009
   4.1266666666666662E-005     2.0584626369605029E-008
   4.1466666666666667E-005     4.1213768655943208E-008
   4.1666666666666658E-005     5.4756509339312535E-008
   4.1866666666666663E-005     5.7368859235688579E-008
   4.2066666666666668E-005     4.7200758107783324E-008
   4.2266666666666660E-005     2.4994485492416543E-008
   4.2466666666666664E-005    -5.8144125338263906E-009
   4.2666666666666656E-005    -3.9560054766073567E-008
   4.2866666666666661E-005    -6.9326262766082702E-008
   4.3066666666666665E-005    -8.8283971881393711E-008
   4.3266666666666657E-005    -9.1137557694172630E-008
   4.3466666666666662E-005    -7.5387343649203518E-008
   4.3666666666666666E-005    -4.2128681717045240E-008
   4.3866666666666658E-005     3.8194076430885563E-009
   4.4066666666666663E-005     5.4541819250655192E-008
   4.4266666666666667E-005     1.0034785959693666E-007
   4.4466666666666659E-005     1.3157354732499956E-007
   4.4666666666666664E-005     1.4053835682220208E-007
   4.4866666666666655E-005     1.2327097465025537E-007
   4.5066666666666660E-005     8.0634796159740125E-008
   4.5266666666666665E-005     1.8576887155205035E-008
   4.5466666666666656E-005    -5.2619722524143222E-008
   4.5666666666666661E-005    -1.2000833854142847E-007
   4.5866666666666666E-005    -1.7031190742228299E-007
   4.6066666666666657E-005    -1.9250153232081450E-007
   4.6266666666666662E-005    -1.8012542649667830E-007
   4.6466666666666667E-005    -1.3290877481406530E-007
   4.6666666666666658E-005    -5.7257214489740318E-008
   4.6866666666666663E-005     3.4509802022148415E-008
   4.7066666666666668E-005     1.2612908587141097E-007
   4.7266666666666659E-005     2.0025810435067902E-007
   4.7466666666666664E-005     2.4172893198006939E-007
   4.7666666666666655E-005     2.4058029276124958E-007
   4.7866666666666660E-005     1.9426462842703084E-007
   4.8066666666666665E-005     1.0855589920809162E-007
   4.8266666666666656E-005    -3.0865663187967386E-009
   4.8466666666666661E-005    -1.2165276163343759E-007
   4.8666666666666666E-005    -2.2587413398557014E-007
   4.8866666666666657E-005    -2.9608979962540848E-007
   4.9066666666666662E-005    -3.1796537383249329E-007
   4.9266666666666667E-005    -2.8534203962242794E-007
   4.9466666666666658E-005    -2.0163578292404949E-007
   4.9666666666666663E-005    -7.9469977607899365E-008
   4.9866666666666655E-005     6.1438453618905031E-008
   5.0066666666666659E-005     1.9777438242066646E-007
   5.0266666666666664E-005     3.0685184233857869E-007
   5.0466666666666656E-005     3.7076124471606977E-007
   5.0666666666666660E-005     3.7961999004750555E-007
   5.0866666666666665E-005     3.3327188769436408E-007
   5.1066666666666657E-005     2.4108166961818127E-007
   5.1266666666666661E-005     1.1985335603168422E-007
   5.1466666666666666E-005    -9.7091266868572351E-009
   5.1666666666666658E-005    -1.2726798684044854E-007
   5.1866666666666662E-005    -2.1694194522392478E-007
   5.2066666666666667E-005    -2.7033495199851624E-007
   5.2266666666666659E-005    -2.8782301689871993E-007
   5.2466666666666664E-005    -2.7778041830120520E-007
   5.2666666666666655E-005    -2.5387378765565153E-007
   5.2866666666666660E-005    -2.3099367809883671E-007
   5.3066666666666665E-005    -2.2073320229626768E-007
   5.3266666666666656E-005    -2.2748243524819062E-007
   5.3466666666666661E-005    -2.4614153168333600E-007
   5.3666666666666666E-005    -2.6216074373585093E-007
   5.3866666666666657E-005    -2.5414486133446401E-007
   5.4066666666666662E-005    -1.9869596274056092E-007
   5.4266666666666667E-005    -7.6630898019922844E-008
   5.4466666666666658E-005     1.2068968653252557E-007
   5.4666666666666663E-005     3.8634613258569561E-007
   5.4866666666666668E-005     6.9545866839572219E-007
   5.5066666666666659E-005     1.0062895100322962E-006
   5.5266666666666664E-005     1.2651020761829152E-006
   5.5466666666666655E-005     1.4142873446210287E-006
   5.5666666666666660E-005     1.4025530803958394E-006
   5.5866666666666665E-005     1.1954375531001661E-006
   5.6066666666666656E-005     7.8417325007727026E-007
   5.6266666666666661E-005     1.9105870056001595E-007
   5.6466666666666666E-005    -5.3000575651407354E-007
   5.6666666666666657E-005    -1.2983675595791070E-006
   5.6866666666666662E-005    -2.0164553936670105E-006
   5.7066666666666667E-005    -2.5832568497584875E-006
   5.7266666666666658E-005    -2.9093587608553753E-006
   5.7466666666666663E-005    -2.9310800516291188E-006
   5.7666666666666654E-005    -2.6212655520395253E-006
   5.7866666666666659E-005    -1.9948131502208012E-006
   5.8066666666666664E-005    -1.1078704871444295E-006
   5.8266666666666655E-005    -5.0729686299287370E-008
   5.8466666666666660E-005     1.0644409826777034E-006
   5.8666666666666665E-005     2.1189710708743411E-006
   5.8866666666666656E-005     3.0035637027386612E-006
   5.9066666666666661E-005     3.6320088464666671E-006
   5.9266666666666666E-005     3.9505156030342333E-006
   5.9466666666666657E-005     3.9413174812956027E-006
   5.9666666666666662E-005     3.6203359560649779E-006
   5.9866666666666667E-005     3.0298557690122129E-006
   6.0066666666666659E-005     2.2281245024852555E-006
   6.0266666666666663E-005     1.2783514749693617E-006
   6.0466666666666655E-005     2.3959985163102604E-007
   6.0666666666666660E-005    -8.3845166830011088E-007
   6.0866666666666664E-005    -1.9158868458075580E-006
   6.1066666666666656E-005    -2.9583054148807979E-006
   6.1266666666666661E-005    -3.9294236809997847E-006
   6.1466666666666665E-005    -4.7829356227399369E-006
   6.1666666666666657E-005    -5.4564908228121701E-006
   6.1866666666666662E-005    -5.8704361613586760E-006
   6.2066666666666666E-005    -5.9331090063927716E-006
   6.2266666666666658E-005    -5.5530849193326945E-006
   6.2466666666666663E-005    -4.6571443829200397E-006
   6.2666666666666668E-005    -3.2111227497545644E-006
   6.2866666666666659E-005    -1.2396415620496596E-006
   6.3066666666666664E-005     1.1597707452996489E-006
   6.3266666666666655E-005     3.8122695038121419E-006
   6.3466666666666660E-005     6.4738267062422233E-006
   6.3666666666666665E-005     8.8527462744521444E-006
   6.3866666666666656E-005     1.0643000710567784E-005
   6.4066666666666661E-005     1.1565458661060516E-005
   6.4266666666666666E-005     1.1411158495717513E-005
   6.4466666666666657E-005     1.0079745681117481E-005
   6.4666666666666662E-005     7.6062795873863809E-006
   6.4866666666666667E-005     4.1709193420392644E-006
   6.5066666666666658E-005     8.8332876245459032E-008
   6.5266666666666663E-005    -4.2232461047004429E-006
   6.5466666666666654E-005    -8.2901238574916138E-006
   6.5666666666666659E-005    -1.1642261719675379E-005
   6.5866666666666664E-005    -1.3875197972746158E-005
   6.6066666666666655E-005    -1.4705727577907406E-005
   6.6266666666666660E-005    -1.4012934443592905E-005
   6.6466666666666665E-005    -1.1858152971834055E-005
   6.6666666666666656E-005    -8.4805165032593401E-006
   6.6866666666666661E-005    -4.2684195174749399E-006
   6.7066666666666666E-005     2.8917127011874035E-007
   6.7266666666666657E-005     4.6646104771861033E-006
   6.7466666666666662E-005     8.3578716769967928E-006
   6.7666666666666667E-005     1.0957971150676758E-005
   6.7866666666666658E-005     1.2191307673435648E-005
   6.8066666666666663E-005     1.1950944827780601E-005
   6.8266666666666655E-005     1.0303965161681675E-005
   6.8466666666666659E-005     7.4774342598068756E-006
   6.8666666666666664E-005     3.8264447132376590E-006
   6.8866666666666656E-005    -2.1003285144787667E-007
   6.9066666666666660E-005    -4.1587923629203529E-006
   6.9266666666666665E-005    -7.5609693891753349E-006
   6.9466666666666657E-005    -1.0014517245328860E-005
   6.9666666666666661E-005    -1.1207184563497428E-005
   6.9866666666666666E-005    -1.0939199564569451E-005
   7.0066666666666658E-005    -9.1363689860831518E-006
   7.0266666666666662E-005    -5.8557303948883330E-006
   7.0466666666666654E-005    -1.2858230346036321E-006
   7.0666666666666659E-005     4.2569280365041772E-006
   7.0866666666666664E-005     1.0335863435797112E-005
   7.1066666666666655E-005     1.6407385536717671E-005
   7.1266666666666660E-005     2.1843019185272187E-005
   7.1466666666666665E-005     2.5963474825231402E-005
   7.1666666666666656E-005     2.8087612553316980E-005
   7.1866666666666661E-005     2.7596596523175126E-005
   7.2066666666666666E-005     2.4010647025482111E-005
   7.2266666666666657E-005     1.7071916701891228E-005
   7.2466666666666662E-005     6.8233252506076278E-006
   7.2666666666666667E-005    -6.3292781664225131E-006
   7.2866666666666658E-005    -2.1585088627694923E-005
   7.3066666666666663E-005    -3.7758627793020565E-005
   7.3266666666666654E-005    -5.3340159332763062E-005
   7.3466666666666659E-005    -6.6608457066193917E-005
   7.3666666666666664E-005    -7.5790444342918489E-005
   7.3866666666666655E-005    -7.9254204350000528E-005
   7.4066666666666660E-005    -7.5715516056245170E-005
   7.4266666666666665E-005    -6.4432940263143464E-005
   7.4466666666666656E-005    -4.5364994485514414E-005
   7.4666666666666661E-005    -1.9265388221177000E-005
   7.4866666666666666E-005     1.2302224991024897E-005
   7.5066666666666657E-005     4.7039479425474921E-005
   7.5266666666666662E-005     8.2077126539675460E-005
   7.5466666666666653E-005     1.1421519358589255E-004