  -3.3333333333333335E-005     0.0000000000000000     
  -3.3133333333333337E-005     0.0000000000000000     
  -3.2933333333333332E-005     0.0000000000000000     
  -3.2733333333333334E-005     0.0000000000000000     
  -3.2533333333333336E-005     0.0000000000000000     
  -3.2333333333333338E-005     0.0000000000000000     
  -3.2133333333333333E-005     0.0000000000000000     
  -3.1933333333333335E-005     0.0000000000000000     
  -3.1733333333333337E-005     0.0000000000000000     
  -3.1533333333333332E-005     0.0000000000000000     
  -3.1333333333333334E-005     0.0000000000000000     
  -3.1133333333333336E-005     0.0000000000000000     
  -3.0933333333333338E-005     0.0000000000000000     
  -3.0733333333333333E-005     0.0000000000000000     
  -3.0533333333333335E-005     0.0000000000000000     
  -3.0333333333333337E-005     0.0000000000000000     
  -3.0133333333333335E-005     0.0000000000000000     
  -2.9933333333333334E-005     0.0000000000000000     
  -2.9733333333333336E-005     0.0000000000000000     
  -2.9533333333333334E-005     0.0000000000000000     
  -2.9333333333333336E-005     0.0000000000000000     
  -2.9133333333333334E-005     0.0000000000000000     
  -2.8933333333333336E-005     0.0000000000000000     
  -2.8733333333333335E-005     0.0000000000000000     
  -2.8533333333333333E-005     0.0000000000000000     
  -2.8333333333333335E-005     0.0000000000000000     
  -2.8133333333333337E-005     0.0000000000000000     
  -2.7933333333333336E-005     0.0000000000000000     
  -2.7733333333333334E-005     0.0000000000000000     
  -2.7533333333333336E-005     0.0000000000000000     
  -2.7333333333333335E-005     0.0000000000000000     
  -2.7133333333333333E-005     0.0000000000000000     
  -2.6933333333333335E-005     0.0000000000000000     
  -2.6733333333333337E-005     0.0000000000000000     
  -2.6533333333333336E-005     0.0000000000000000     
  -2.6333333333333334E-005     0.0000000000000000     
  -2.6133333333333336E-005     0.0000000000000000     
  -2.5933333333333335E-005     0.0000000000000000     
  -2.5733333333333333E-005     0.0000000000000000     
  -2.5533333333333335E-005     0.0000000000000000     
  -2.5333333333333337E-005     0.0000000000000000     
  -2.5133333333333336E-005     0.0000000000000000     
  -2.4933333333333334E-005     0.0000000000000000     
  -2.4733333333333336E-005     0.0000000000000000     
  -2.4533333333333334E-005     0.0000000000000000     
  -2.4333333333333333E-005     0.0000000000000000     
  -2.4133333333333335E-005     0.0000000000000000     
  -2.3933333333333337E-005     0.0000000000000000     
  -2.3733333333333335E-005     0.0000000000000000     
  -2.3533333333333334E-005     0.0000000000000000     
  -2.3333333333333336E-005     0.0000000000000000     
  -2.3133333333333338E-005     0.0000000000000000     
  -2.2933333333333336E-005     0.0000000000000000     
  -2.2733333333333335E-005     0.0000000000000000     
  -2.2533333333333337E-005     0.0000000000000000     
  -2.2333333333333335E-005     0.0000000000000000     
  -2.2133333333333334E-005     0.0000000000000000     
  -2.1933333333333336E-005     0.0000000000000000     
  -2.1733333333333338E-005     0.0000000000000000     
  -2.1533333333333336E-005     0.0000000000000000     
  -2.1333333333333335E-005     0.0000000000000000     
  -2.1133333333333337E-005     0.0000000000000000     
  -2.0933333333333335E-005     0.0000000000000000     
  -2.0733333333333334E-005     0.0000000000000000     
  -2.0533333333333336E-005     0.0000000000000000     
  -2.0333333333333337E-005     0.0000000000000000     
  -2.0133333333333336E-005     0.0000000000000000     
  -1.9933333333333334E-005     0.0000000000000000     
  -1.9733333333333336E-005     0.0000000000000000     
  -1.9533333333333335E-005     0.0000000000000000     
  -1.9333333333333333E-005     0.0000000000000000     
  -1.9133333333333335E-005     0.0000000000000000     
  -1.8933333333333337E-005     0.0000000000000000     
  -1.8733333333333336E-005     0.0000000000000000     
  -1.8533333333333334E-005     0.0000000000000000     
  -1.8333333333333336E-005     0.0000000000000000     
  -1.8133333333333335E-005     0.0000000000000000     
  -1.7933333333333337E-005     0.0000000000000000     
  -1.7733333333333335E-005     0.0000000000000000     
  -1.7533333333333337E-005     0.0000000000000000     
  -1.7333333333333336E-005     0.0000000000000000     
  -1.7133333333333334E-005     0.0000000000000000     
  -1.6933333333333336E-005     0.0000000000000000     
  -1.6733333333333335E-005     0.0000000000000000     
  -1.6533333333333337E-005     0.0000000000000000     
  -1.6333333333333335E-005     0.0000000000000000     
  -1.6133333333333337E-005     0.0000000000000000     
  -1.5933333333333336E-005     0.0000000000000000     
  -1.5733333333333334E-005     0.0000000000000000     
  -1.5533333333333336E-005     0.0000000000000000     
  -1.5333333333333334E-005     0.0000000000000000     
  -1.5133333333333336E-005     0.0000000000000000     
  -1.4933333333333335E-005     0.0000000000000000     
  -1.4733333333333337E-005     0.0000000000000000     
  -1.4533333333333335E-005     0.0000000000000000     
  -1.4333333333333337E-005     0.0000000000000000     
  -1.4133333333333336E-005     0.0000000000000000     
  -1.3933333333333334E-005     0.0000000000000000     
  -1.3733333333333336E-005     0.0000000000000000     
  -1.3533333333333335E-005     0.0000000000000000     
  -1.3333333333333337E-005     0.0000000000000000     
  -1.3133333333333335E-005     0.0000000000000000     
  -1.2933333333333337E-005     0.0000000000000000     
  -1.2733333333333336E-005     0.0000000000000000     
  -1.2533333333333338E-005     0.0000000000000000     
  -1.2333333333333336E-005     0.0000000000000000     
  -1.2133333333333335E-005     0.0000000000000000     
  -1.1933333333333337E-005     0.0000000000000000     
  -1.1733333333333335E-005     0.0000000000000000     
  -1.1533333333333337E-005     0.0000000000000000     
  -1.1333333333333336E-005     0.0000000000000000     
  -1.1133333333333337E-005     0.0000000000000000     
  -1.0933333333333336E-005     0.0000000000000000     
  -1.0733333333333334E-005     0.0000000000000000     
  -1.0533333333333336E-005     0.0000000000000000     
  -1.0333333333333335E-005     0.0000000000000000     
  -1.0133333333333337E-005     0.0000000000000000     
  -9.9333333333333354E-006     0.0000000000000000     
  -9.7333333333333373E-006     0.0000000000000000     
  -9.5333333333333358E-006     0.0000000000000000     
  -9.3333333333333343E-006     0.0000000000000000     
  -9.1333333333333362E-006     0.0000000000000000     
  -8.9333333333333348E-006     0.0000000000000000     
  -8.7333333333333367E-006     0.0000000000000000     
  -8.5333333333333352E-006     0.0000000000000000     
  -8.3333333333333371E-006     0.0000000000000000     
  -8.1333333333333356E-006     0.0000000000000000     
  -7.9333333333333376E-006     0.0000000000000000     
  -7.7333333333333361E-006     0.0000000000000000     
  -7.5333333333333346E-006     0.0000000000000000     
  -7.3333333333333365E-006     0.0000000000000000     
  -7.1333333333333351E-006     0.0000000000000000     
  -6.9333333333333370E-006     0.0000000000000000     
  -6.7333333333333355E-006     0.0000000000000000     
  -6.5333333333333374E-006     0.0000000000000000     
  -6.3333333333333359E-006     0.0000000000000000     
  -6.1333333333333379E-006     0.0000000000000000     
  -5.9333333333333364E-006     0.0000000000000000     
  -5.7333333333333349E-006     0.0000000000000000     
  -5.5333333333333368E-006     0.0000000000000000     
  -5.3333333333333354E-006     0.0000000000000000     
  -5.1333333333333373E-006     0.0000000000000000     
  -4.9333333333333358E-006     0.0000000000000000     
  -4.7333333333333377E-006     0.0000000000000000     
  -4.5333333333333362E-006     0.0000000000000000     
  -4.3333333333333348E-006     0.0000000000000000     
  -4.1333333333333367E-006     0.0000000000000000     
  -3.9333333333333352E-006     0.0000000000000000     
  -3.7333333333333371E-006     0.0000000000000000     
  -3.5333333333333356E-006     0.0000000000000000     
  -3.3333333333333376E-006     0.0000000000000000     
  -3.1333333333333361E-006     0.0000000000000000     
  -2.9333333333333346E-006     0.0000000000000000     
  -2.7333333333333365E-006     0.0000000000000000     
  -2.5333333333333384E-006     0.0000000000000000     
  -2.3333333333333336E-006     0.0000000000000000     
  -2.1333333333333355E-006     0.0000000000000000     
  -1.9333333333333374E-006     0.0000000000000000     
  -1.7333333333333393E-006     0.0000000000000000     
  -1.5333333333333345E-006     0.0000000000000000     
  -1.3333333333333364E-006     0.0000000000000000     
  -1.1333333333333383E-006    -1.3259885675921878E-041
  -9.3333333333333343E-007    -1.3259885675921878E-041
  -7.3333333333333535E-007    -1.3259885675921878E-041
  -5.3333333333333726E-007     2.7118520427815160E-041
  -3.3333333333333918E-007     7.4881831279310383E-041
  -1.3333333333333432E-007     4.3045121853706086E-040
   6.6666666666663770E-008     8.2248019334615262E-040
   2.6666666666666185E-007     9.3081378905238573E-040
   4.6666666666666672E-007     9.1712704501688919E-040
   6.6666666666666480E-007     2.1210268813039067E-040
   8.6666666666666289E-007    -1.2878920954896199E-039
   1.0666666666666610E-006    -4.4991228830266962E-039
   1.2666666666666658E-006    -9.5931639273271479E-039
   1.4666666666666639E-006    -1.4130505238473613E-038
   1.6666666666666620E-006    -1.6303725943579843E-038
   1.8666666666666669E-006    -2.2077613164634531E-038
   2.0666666666666649E-006    -1.7444847182630543E-038
   2.2666666666666630E-006    -1.3040736130841349E-038
   2.4666666666666611E-006     2.7429625084044469E-039
   2.6666666666666660E-006     3.3447029652396857E-038
   2.8666666666666641E-006     6.3335204272132603E-038
   3.0666666666666622E-006     1.1017221067454714E-037
   3.2666666666666602E-006     1.6059652420164212E-037
   3.4666666666666651E-006     2.0061394411299912E-037
   3.6666666666666632E-006     2.2617337504876572E-037
   3.8666666666666613E-006     1.9782596109724160E-037
   4.0666666666666661E-006     8.7488230832409681E-038
   4.2666666666666642E-006    -1.3101230942896120E-037
   4.4666666666666623E-006    -4.6748786562741065E-037
   4.6666666666666604E-006    -9.0304424129212596E-037
   4.8666666666666652E-006    -1.3749759997622237E-036
   5.0666666666666633E-006    -1.7680775146025746E-036
   5.2666666666666614E-006    -1.9128388740084793E-036
   5.4666666666666663E-006    -1.6003957491937205E-036
   5.6666666666666644E-006    -6.1674041677472617E-037
   5.8666666666666624E-006     1.1990215359470455E-036
   6.0666666666666605E-006     3.8761638702335739E-036
   6.2666666666666654E-006     7.2215641310782051E-036
   6.4666666666666635E-006     1.0735076213841432E-035
   6.6666666666666616E-006     1.3559164789094026E-035
   6.8666666666666664E-006     1.4496169376386576E-035
   7.0666666666666645E-006     1.2127750844936306E-035
   7.2666666666666626E-006     5.0629370640538896E-036
   7.4666666666666607E-006    -7.6793845844264774E-036
   7.6666666666666655E-006    -2.6179929425466676E-035
   7.8666666666666636E-006    -4.9088302554520370E-035
   8.0666666666666617E-006    -7.3165303418964401E-035
   8.2666666666666598E-006    -9.3049892744251050E-035
   8.4666666666666647E-006    -1.0142173703865429E-034
   8.6666666666666627E-006    -8.9717874595951755E-035
   8.8666666666666608E-006    -4.9507821560201630E-035
   9.0666666666666657E-006     2.5469412665326891E-035
   9.2666666666666638E-006     1.3674522723158200E-034
   9.4666666666666619E-006     2.7834717485728998E-034
   9.6666666666666599E-006     4.3429483542673827E-034
   9.8666666666666648E-006     5.7700131027224207E-034
   1.0066666666666663E-005     6.6731075350261611E-034
   1.0266666666666661E-005     6.5691482305194792E-034
   1.0466666666666666E-005     4.9379057236313705E-034
   1.0666666666666664E-005     1.3107354074304024E-034
   1.0866666666666662E-005    -4.6061054027853041E-034
   1.1066666666666660E-005    -1.2778996550553216E-033
   1.1266666666666665E-005    -2.2678751321162496E-033
   1.1466666666666663E-005    -3.3120290587114073E-033
   1.1666666666666661E-005    -4.2146482483105324E-033
   1.1866666666666666E-005    -4.7006007344772016E-033
   1.2066666666666664E-005    -4.4287504446902960E-033
   1.2266666666666662E-005    -3.0278321381836547E-033
   1.2466666666666660E-005    -1.6091014232877685E-034
   1.2666666666666665E-005     4.3782825318820628E-033
   1.2866666666666663E-005     1.0539740802177700E-032
   1.3066666666666661E-005     1.7874270071859211E-032
   1.3266666666666666E-005     2.5397851250858285E-032
   1.3466666666666664E-005     3.1502273594612332E-032
   1.3666666666666662E-005     3.3964179157093262E-032
   1.3866666666666660E-005     3.0111678147602610E-032
   1.4066666666666665E-005     1.7202894719466855E-032
   1.4266666666666663E-005    -6.9521852699310836E-033
   1.4466666666666661E-005    -4.3140842442475245E-032
   1.4666666666666666E-005    -8.9750670458537243E-032
   1.4866666666666664E-005    -1.4179591143247536E-031
   1.5066666666666662E-005    -1.9022633514603009E-031
   1.5266666666666661E-005    -2.2184934161499748E-031
   1.5466666666666665E-005    -2.2021978723118149E-031
   1.5666666666666663E-005    -1.6779629599872475E-031
   1.5866666666666662E-005    -4.9503400758061112E-032
   1.6066666666666660E-005     1.4243750109477473E-031
   1.6266666666666665E-005     4.0292401448602031E-031
   1.6466666666666663E-005     7.0858662564153030E-031
   1.6666666666666661E-005     1.0139632174134731E-030
   1.6866666666666666E-005     1.2508790290768994E-030
   1.7066666666666664E-005     1.3326945812636281E-030
   1.7266666666666662E-005     1.1647350475328698E-030
   1.7466666666666660E-005     6.6140911184425685E-031
   1.7666666666666665E-005    -2.3073497259988015E-031
   1.7866666666666663E-005    -1.5063928659826031E-030
   1.8066666666666661E-005    -3.0754883000451944E-030
   1.8266666666666666E-005    -4.7435562194176739E-030
   1.8466666666666664E-005    -6.2054161494198599E-030
   1.8666666666666662E-005    -7.0591413779518639E-030
   1.8866666666666660E-005    -6.8461457396124146E-030
   1.9066666666666665E-005    -5.1203462976480875E-030
   1.9266666666666663E-005    -1.5449120284987450E-030
   1.9466666666666661E-005     3.9909481256172434E-030
   1.9666666666666666E-005     1.1249586786283534E-029
   1.9866666666666664E-005     1.9538556699515707E-029
   2.0066666666666662E-005     2.7647935314412329E-029
   2.0266666666666660E-005     3.3862622650339677E-029
   2.0466666666666665E-005     3.6080167547461390E-029
   2.0666666666666663E-005     3.2057980765282229E-029
   2.0866666666666661E-005     1.9799457494811670E-029
   2.1066666666666659E-005    -1.9345615551878974E-030
   2.1266666666666664E-005    -3.3033863858560865E-029
   2.1466666666666662E-005    -7.1449182392263254E-029
   2.1666666666666660E-005    -1.1272684515262090E-028
   2.1866666666666665E-005    -1.4982316308090264E-028
   2.2066666666666663E-005    -1.7337010517868681E-028
   2.2266666666666661E-005    -1.7255077609740028E-028
   2.2466666666666659E-005    -1.3668683657549688E-028
   2.2666666666666664E-005    -5.7532453225000194E-029
   2.2866666666666662E-005     6.7891360901856421E-029
   2.3066666666666660E-005     2.3429106805612912E-028
   2.3266666666666665E-005     4.2550900897284200E-028
   2.3466666666666663E-005     6.1311389469450892E-028
   2.3666666666666661E-005     7.5703078007103348E-028
   2.3866666666666660E-005     8.0899664770695559E-028
   2.4066666666666664E-005     7.1933262037546946E-028
   2.4266666666666662E-005     4.4697711107681612E-028
   2.4466666666666661E-005    -2.8055609070093217E-029
   2.4666666666666665E-005    -6.9155371129059871E-028
   2.4866666666666663E-005    -1.4840019351134109E-027
   2.5066666666666662E-005    -2.2948298406348829E-027
   2.5266666666666660E-005    -2.9655111039293893E-027
   2.5466666666666665E-005    -3.3043880571479414E-027
   2.5666666666666663E-005    -3.1145495691239648E-027
   2.5866666666666661E-005    -2.2336151280524709E-027
   2.6066666666666666E-005    -5.8110603658387702E-028
   2.6266666666666664E-005     1.7942895048502634E-027
   2.6466666666666662E-005     4.6780542299051474E-027
   2.6666666666666660E-005     7.6756994377854702E-027
   2.6866666666666665E-005     1.0232149901242475E-026
   2.7066666666666663E-005     1.1691936071762980E-026
   2.7266666666666661E-005     1.1400750352041954E-026
   2.7466666666666666E-005     8.8397821078784719E-027
   2.7666666666666664E-005     3.7742894575235557E-027
   2.7866666666666662E-005    -3.6112134787342210E-027
   2.8066666666666667E-005    -1.2624094195939403E-026
   2.8266666666666658E-005    -2.2053434415161292E-026
   2.8466666666666663E-005    -3.0262792405581240E-026
   2.8666666666666668E-005    -3.5394074671523956E-026
   2.8866666666666659E-005    -3.5668574397341469E-026
   2.9066666666666664E-005    -2.9746405473429814E-026
   2.9266666666666669E-005    -1.7083626216811288E-026
   2.9466666666666660E-005     1.7869793608617535E-027
   2.9666666666666665E-005     2.5124509571209623E-026
   2.9866666666666656E-005     5.0052846368488899E-026
   3.0066666666666661E-005     7.2857957760746872E-026
   3.0266666666666666E-005     8.9483536616067640E-026
   3.0466666666666657E-005     9.6150863039794607E-026
   3.0666666666666662E-005     8.9991780381861829E-026
   3.0866666666666667E-005     6.9569203547246634E-026
   3.1066666666666658E-005     3.5177366947965145E-026
   3.1266666666666663E-005    -1.1134844837873025E-026
   3.1466666666666668E-005    -6.5799613373292011E-026
   3.1666666666666659E-005    -1.2412614739027280E-025
   3.1866666666666664E-005    -1.8070069030755421E-025
   3.2066666666666656E-005    -2.2962325045422335E-025
   3.2266666666666660E-005    -2.6447645329174266E-025
   3.2466666666666665E-005    -2.7805188927347052E-025
   3.2666666666666657E-005    -2.6204191716479335E-025
   3.2866666666666661E-005    -2.0708518064395943E-025
   3.3066666666666666E-005    -1.0366162715489985E-025
   3.3266666666666658E-005     5.5710607566831780E-026
   3.3466666666666662E-005     2.7277526328505208E-025
   3.3666666666666667E-005     5.3861561048236668E-025
   3.3866666666666659E-005     8.2843883150765445E-025
   3.4066666666666664E-005     1.0976759970168105E-024
   3.4266666666666668E-005     1.2815110028463717E-024
   3.4466666666666660E-005     1.3000198498941845E-024
   3.4666666666666665E-005     1.0705058428848349E-024
   3.4866666666666656E-005     5.2724647044418613E-025
   3.5066666666666661E-005    -3.5324402160287118E-025
   3.5266666666666666E-005    -1.5258501819703317E-024
   3.5466666666666657E-005    -2.8561753935594457E-024
   3.5666666666666662E-005    -4.1138128464907546E-024
   3.5866666666666667E-005    -4.9875851377650848E-024
   3.6066666666666658E-005    -5.1281745493268047E-024
   3.6266666666666663E-005    -4.2183817216650437E-024
   3.6466666666666668E-005    -2.0638767784376711E-024
   3.6666666666666659E-005     1.3110334407062589E-024
   3.6866666666666664E-005     5.5855246103259706E-024
   3.7066666666666669E-005     1.0109258811375269E-023
   3.7266666666666660E-005     1.3939667905947714E-023
   3.7466666666666665E-005     1.5965932994188927E-023
   3.7666666666666656E-005     1.5119450334989421E-023
   3.7866666666666661E-005     1.0647986306117433E-023
   3.8066666666666666E-005     2.4061274910099261E-024
   3.8266666666666657E-005    -8.9061300590594423E-024
   3.8466666666666662E-005    -2.1634868512929584E-023
   3.8666666666666667E-005    -3.3265026951152859E-023
   3.8866666666666658E-005    -4.0757733251893411E-023
   3.9066666666666663E-005    -4.1126782501505106E-023
   3.9266666666666668E-005    -3.2185568577376102E-023
   3.9466666666666659E-005    -1.3329704802814226E-023
   3.9666666666666664E-005     1.3831947377112644E-023
   3.9866666666666655E-005     4.5205526092382878E-023
   4.0066666666666660E-005     7.4480531280125935E-023
   4.0266666666666665E-005     9.4036462122985653E-023
   4.0466666666666656E-005     9.6452024976835069E-023
   4.0666666666666661E-005     7.6414889199078207E-023
   4.0866666666666666E-005     3.2664868038396543E-023
   4.1066666666666657E-005    -3.0516770132152627E-023
   4.1266666666666662E-005    -1.0278940055114783E-022
   4.1466666666666667E-005    -1.6862807105114021E-022
   4.1666666666666658E-005    -2.0977919330628743E-022
   4.1866666666666663E-005    -2.0913067135489841E-022
   4.2066666666666668E-005    -1.5541413181243329E-022
   4.2266666666666660E-005    -4.7768348006735709E-023
   4.2466666666666664E-005     1.0105755951211457E-022
   4.2666666666666656E-005     2.6408962415917062E-022
   4.2866666666666661E-005     4.0301949211328253E-022
   4.3066666666666665E-005     4.7487364470593560E-022
   4.3266666666666657E-005     4.4183236943036812E-022
   4.3466666666666662E-005     2.8256625709418591E-022
   4.3666666666666666E-005     2.5854402950788481E-024
   4.3866666666666658E-005    -3.5937662961958246E-022
   4.4066666666666663E-005    -7.3176066361901674E-022
   4.4266666666666667E-005    -1.0192358011559952E-021
   4.4466666666666659E-005    -1.1205834841287166E-021
   4.4666666666666664E-005    -9.5334751751874884E-022
   4.4866666666666655E-005    -4.8083572211437750E-022
   4.5066666666666660E-005     2.6482545500852817E-022
   4.5266666666666665E-005     1.1706829158553796E-021
   4.5466666666666656E-005     2.0482982620853240E-021
   4.5666666666666661E-005     2.6600915150262559E-021
   4.5866666666666666E-005     2.7660005728323404E-021
   4.6066666666666657E-005     2.1843796655246745E-021
   4.6266666666666662E-005     8.5568037578835517E-022
   4.6466666666666667E-005    -1.1064965639350477E-021
   4.6666666666666658E-005    -3.3935598948923213E-021
   4.6866666666666663E-005    -5.5231580860995239E-021
   4.7066666666666668E-005    -6.9103508268682258E-021
   4.7266666666666659E-005    -6.9849293970840150E-021
   4.7466666666666664E-005    -5.3384439642356529E-021
   4.7666666666666655E-005    -1.8724532269421035E-021
   4.7866666666666660E-005     3.0886446989720832E-021
   4.8066666666666665E-005     8.7581359566909273E-021
   4.8266666666666656E-005     1.3950945955821586E-020
   4.8466666666666661E-005     1.7263658396948885E-020
   4.8666666666666666E-005     1.7357945058620633E-020
   4.8866666666666657E-005     1.3305813492594113E-020
   4.9066666666666662E-005     4.9286546277550510E-021
   4.9266666666666667E-005    -6.9546236231927432E-021
   4.9466666666666658E-005    -2.0455428624500231E-020
   4.9666666666666663E-005    -3.2783863015856281E-020
   4.9866666666666655E-005    -4.0680686794618516E-020
   5.0066666666666659E-005    -4.1077758824354348E-020
   5.0266666666666664E-005    -3.1887225419964594E-020
   5.0466666666666656E-005    -1.2762390652059388E-020
   5.0666666666666660E-005     1.4360706255087071E-020
   5.0866666666666665E-005     4.5128678400227290E-020
   5.1066666666666657E-005     7.3181175924672484E-020
   5.1266666666666661E-005     9.1148953015510893E-020
   5.1466666666666666E-005     9.2152335555057804E-020
   5.1666666666666658E-005     7.1570550121096241E-020
   5.1866666666666662E-005     2.8729403720589297E-020
   5.2066666666666667E-005    -3.1915777454570887E-020
   5.2266666666666659E-005    -1.0051230521228137E-019
   5.2466666666666664E-005    -1.6275480104398212E-019
   5.2666666666666655E-005    -2.0212812852119063E-019
   5.2866666666666660E-005    -2.0324972041725300E-019
   5.3066666666666665E-005    -1.5580392719053454E-019
   5.3266666666666656E-005    -5.8294627753747342E-020
   5.3466666666666661E-005     7.9308634830000794E-020
   5.3666666666666666E-005     2.3492898865287235E-019
   5.3866666666666657E-005     3.7640116763539413E-019
   5.4066666666666662E-005     4.6635456934459152E-019
   5.4266666666666667E-005     4.6955368762498002E-019
   5.4466666666666658E-005     3.6162565576894181E-019
   5.4666666666666663E-005     1.3752275869620199E-019
   5.4866666666666668E-005    -1.8227578618825204E-019
   5.5066666666666659E-005    -5.4979413164435309E-019
   5.5266666666666664E-005    -8.9331809054965840E-019
   5.5466666666666655E-005    -1.1274529430487909E-018
   5.5666666666666660E-005    -1.1687860517720508E-018
   5.5866666666666665E-005    -9.5504381918262890E-019
   5.6066666666666656E-005    -4.6436156133173994E-019
   5.6266666666666661E-005     2.6954221089923257E-019
   5.6466666666666666E-005     1.1505904027029853E-018
   5.6666666666666657E-005     2.0254548211873884E-018
   5.6866666666666662E-005     2.7022731707293747E-018
   5.7066666666666667E-005     2.9821789405402222E-018
   5.7266666666666658E-005     2.6999311648146810E-018
   5.7466666666666663E-005     1.7671648805612003E-018
   5.7666666666666654E-005     2.0977260152258080E-019
   5.7866666666666659E-005    -1.8097300542690624E-018
   5.8066666666666664E-005    -3.9928971574833074E-018
   5.8266666666666655E-005    -5.9341464824520290E-018
   5.8466666666666660E-005    -7.1780135569669511E-018
   5.8666666666666665E-005    -7.2995222897312944E-018
   5.8866666666666656E-005    -5.9965105505949522E-018
   5.9066666666666661E-005    -3.1780289597621936E-018
   5.9266666666666666E-005     9.6959067467751997E-019
   5.9466666666666657E-005     5.9567243398379275E-018
   5.9666666666666662E-005     1.1017975266639219E-017
   5.9866666666666667E-005     1.5198938040054240E-017
   6.0066666666666659E-005     1.7497622153589074E-017
   6.0266666666666663E-005     1.7044564320143682E-017
   6.0466666666666655E-005     1.3295239134621124E-017
   6.0666666666666660E-005     6.2010413341854114E-018
   6.0866666666666664E-005    -3.6772295789123673E-018
   6.1066666666666656E-005    -1.5145460373655290E-017
   6.1266666666666661E-005    -2.6463435100060252E-017
   6.1466666666666665E-005    -3.5548384589110076E-017
   6.1666666666666657E-005    -4.0280071248242761E-017
   6.1866666666666662E-005    -3.8871887003782501E-017
   6.2066666666666666E-005    -3.0254585277277926E-017
   6.2266666666666658E-005    -1.4407755139026979E-017
   6.2466666666666663E-005     7.4278848529874318E-018
   6.2666666666666668E-005     3.2715401069618937E-017
   6.2866666666666659E-005     5.7801606611401048E-017
   6.3066666666666664E-005     7.8320381044934783E-017
   6.3266666666666655E-005     8.9792104548220436E-017
   6.3466666666666660E-005     8.8355402932578259E-017
   6.3666666666666665E-005     7.1535342209513694E-017
   6.3866666666666656E-005     3.8930042465047216E-017
   6.4066666666666661E-005    -7.3092562813861965E-018
   6.4266666666666666E-005    -6.2319218774390766E-017
   6.4466666666666657E-005    -1.1877113399854455E-016
   6.4666666666666662E-005    -1.6756113267625465E-016
   6.4866666666666667E-005    -1.9892092738438348E-016
   6.5066666666666658E-005    -2.0385882898909855E-016
   6.5266666666666663E-005    -1.7577376487337324E-016
   6.5466666666666654E-005    -1.1202853734489704E-016
   6.5666666666666659E-005    -1.5232003254701459E-017
   6.5866666666666664E-005     1.0602926586623809E-016
   6.6066666666666655E-005     2.3724180793047751E-016
   6.6266666666666660E-005     3.5896442226645552E-016
   6.6466666666666665E-005     4.4883593529523233E-016
   6.6666666666666656E-005     4.8451182213094890E-016
   6.6866666666666661E-005     4.4728933818489677E-016
   6.7066666666666666E-005     3.2601455552010794E-016
   6.7266666666666657E-005     1.2071949421167893E-016
   6.7466666666666662E-005    -1.5465954586488184E-016
   6.7666666666666667E-005    -4.7115179407629264E-016
   6.7866666666666658E-005    -7.8579803245533719E-016
   6.8066666666666663E-005    -1.0452606863856981E-015
   6.8266666666666655E-005    -1.1920681046868905E-015
   6.8466666666666659E-005    -1.1731456257245519E-015
   6.8666666666666664E-005    -9.4981064607712846E-016
   6.8866666666666656E-005    -5.0794415629691422E-016
   6.9066666666666660E-005     1.3332582881755553E-016
   6.9266666666666665E-005     9.1628513093584781E-016
   6.9466666666666657E-005     1.7444229217098544E-015
   6.9666666666666661E-005     2.4887316456966086E-015
   6.9866666666666666E-005     3.0011490863676265E-015
   7.0066666666666658E-005     3.1347179486415781E-015
   7.0266666666666662E-005     2.7687690683306646E-015
   7.0466666666666654E-005     1.8361333593728646E-015
   7.0666666666666659E-005     3.4825766130907463E-016
   7.0866666666666664E-005    -1.5865923972145223E-015
   7.1066666666666655E-005    -3.7569057093451458E-015
   7.1266666666666660E-005    -5.8573478224240820E-015
   7.1466666666666665E-005    -7.5164125658156559E-015
   7.1666666666666656E-005    -8.3421648870565223E-015
   7.1866666666666661E-005    -7.9828297677927084E-015
   7.2066666666666666E-005    -6.1956535218140548E-015
   7.2266666666666657E-005    -2.9144983297163475E-015
   7.2466666666666662E-005     1.6954699336369019E-015
   7.2666666666666667E-005     7.2082125037122895E-015
   7.2866666666666658E-005     1.2943283308830687E-014
   7.3066666666666663E-005     1.8015760974180161E-014
   7.3266666666666654E-005     2.1431634171140719E-014
   7.3466666666666659E-005     2.2223562562301475E-014
   7.3666666666666664E-005     1.9614176850775995E-014
   7.3866666666666655E-005     1.3186701905750229E-014
   7.4066666666666660E-005     3.0370137594701309E-015
   7.4266666666666665E-005    -1.0121479000599431E-014
   7.4466666666666656E-005    -2.4927441758019102E-014
   7.4666666666666661E-005    -3.9437020719507240E-014
   7.4866666666666666E-005    -5.1295813460401649E-014
   7.5066666666666657E-005    -5.8013643567451029E-014
   7.5266666666666662E-005    -5.7321519893361814E-014
   7.5466666666666653E-005    -4.7573107709189458E-014