  -3.3333333333333335E-005     0.0000000000000000     
  -3.3133333333333337E-005     0.0000000000000000     
  -3.2933333333333332E-005     0.0000000000000000     
  -3.2733333333333334E-005     0.0000000000000000     
  -3.2533333333333336E-005     0.0000000000000000     
  -3.2333333333333338E-005     0.0000000000000000     
  -3.2133333333333333E-005     0.0000000000000000     
  -3.1933333333333335E-005     0.0000000000000000     
  -3.1733333333333337E-005     0.0000000000000000     
  -3.1533333333333332E-005     0.0000000000000000     
  -3.1333333333333334E-005     0.0000000000000000     
  -3.1133333333333336E-005     0.0000000000000000     
  -3.0933333333333338E-005     0.0000000000000000     
  -3.0733333333333333E-005     0.0000000000000000     
  -3.0533333333333335E-005     0.0000000000000000     
  -3.0333333333333337E-005     0.0000000000000000     
  -3.0133333333333335E-005     0.0000000000000000     
  -2.9933333333333334E-005     0.0000000000000000     
  -2.9733333333333336E-005     0.0000000000000000     
  -2.9533333333333334E-005     0.0000000000000000     
  -2.9333333333333336E-005     0.0000000000000000     
  -2.9133333333333334E-005     0.0000000000000000     
  -2.8933333333333336E-005     0.0000000000000000     
  -2.8733333333333335E-005     0.0000000000000000     
  -2.8533333333333333E-005     0.0000000000000000     
  -2.8333333333333335E-005     0.0000000000000000     
  -2.8133333333333337E-005     0.0000000000000000     
  -2.7933333333333336E-005     0.0000000000000000     
  -2.7733333333333334E-005     0.0000000000000000     
  -2.7533333333333336E-005     0.0000000000000000     
  -2.7333333333333335E-005     0.0000000000000000     
  -2.7133333333333333E-005     0.0000000000000000     
  -2.6933333333333335E-005     0.0000000000000000     
  -2.6733333333333337E-005     0.0000000000000000     
  -2.6533333333333336E-005     0.0000000000000000     
  -2.6333333333333334E-005     0.0000000000000000     
  -2.6133333333333336E-005     0.0000000000000000     
  -2.5933333333333335E-005     0.0000000000000000     
  -2.5733333333333333E-005     0.0000000000000000     
  -2.5533333333333335E-005     0.0000000000000000     
  -2.5333333333333337E-005     0.0000000000000000     
  -2.5133333333333336E-005     0.0000000000000000     
  -2.4933333333333334E-005     0.0000000000000000     
  -2.4733333333333336E-005     0.0000000000000000     
  -2.4533333333333334E-005     0.0000000000000000     
  -2.4333333333333333E-005     0.0000000000000000     
  -2.4133333333333335E-005     0.0000000000000000     
  -2.3933333333333337E-005     0.0000000000000000     
  -2.3733333333333335E-005     0.0000000000000000     
  -2.3533333333333334E-005     0.0000000000000000     
  -2.3333333333333336E-005     0.0000000000000000     
  -2.3133333333333338E-005     0.0000000000000000     
  -2.2933333333333336E-005     0.0000000000000000     
  -2.2733333333333335E-005     0.0000000000000000     
  -2.2533333333333337E-005     0.0000000000000000     
  -2.2333333333333335E-005     0.0000000000000000     
  -2.2133333333333334E-005     0.0000000000000000     
  -2.1933333333333336E-005     0.0000000000000000     
  -2.1733333333333338E-005     0.0000000000000000     
  -2.1533333333333336E-005     0.0000000000000000     
  -2.1333333333333335E-005     0.0000000000000000     
  -2.1133333333333337E-005     0.0000000000000000     
  -2.0933333333333335E-005     0.0000000000000000     
  -2.0733333333333334E-005     0.0000000000000000     
  -2.0533333333333336E-005     0.0000000000000000     
  -2.0333333333333337E-005     0.0000000000000000     
  -2.0133333333333336E-005     0.0000000000000000     
  -1.9933333333333334E-005     0.0000000000000000     
  -1.9733333333333336E-005     0.0000000000000000     
  -1.9533333333333335E-005     0.0000000000000000     
  -1.9333333333333333E-005     0.0000000000000000     
  -1.9133333333333335E-005     0.0000000000000000     
  -1.8933333333333337E-005     0.0000000000000000     
  -1.8733333333333336E-005     0.0000000000000000     
  -1.8533333333333334E-005     0.0000000000000000     
  -1.8333333333333336E-005     0.0000000000000000     
  -1.8133333333333335E-005     0.0000000000000000     
  -1.7933333333333337E-005     0.0000000000000000     
  -1.7733333333333335E-005     0.0000000000000000     
  -1.7533333333333337E-005     7.9908805343233466E-040
  -1.7333333333333336E-005     2.9344423678930505E-039
  -1.7133333333333334E-005     6.5091938004359671E-039
  -1.6933333333333336E-005     1.0554227974596092E-038
  -1.6733333333333335E-005     1.7321011950350050E-038
  -1.6533333333333337E-005     2.4386566322540768E-038
  -1.6333333333333335E-005     3.0228805507028432E-038
  -1.6133333333333337E-005     1.8947790193363825E-038
  -1.5933333333333336E-005    -3.0984454886315016E-038
  -1.5733333333333334E-005    -1.2641168824681946E-037
  -1.5533333333333336E-005    -2.7303910352881496E-037
  -1.5333333333333334E-005    -4.7080702522203050E-037
  -1.5133333333333336E-005    -6.6578002569605992E-037
  -1.4933333333333335E-005    -7.2641394604873610E-037
  -1.4733333333333337E-005    -4.3381907931780439E-037
  -1.4533333333333335E-005     5.0847052433939821E-037
  -1.4333333333333337E-005     2.3889372898779372E-036
  -1.4133333333333336E-005     5.3112340667709624E-036
  -1.3933333333333334E-005     8.9223316651042125E-036
  -1.3733333333333336E-005     1.2083635333277278E-035
  -1.3533333333333335E-005     1.2612307255332222E-035
  -1.3333333333333337E-005     7.2769855274460509E-036
  -1.3133333333333335E-005    -7.6965949954316057E-036
  -1.2933333333333337E-005    -3.5424009596862325E-035
  -1.2733333333333336E-005    -7.6449213713627165E-035
  -1.2533333333333338E-005    -1.2641920900562598E-034
  -1.2333333333333336E-005    -1.7398748002129584E-034
  -1.2133333333333335E-005    -1.9973995716679633E-034
  -1.1933333333333337E-005    -1.7662271879557273E-034
  -1.1733333333333335E-005    -7.1412512678047819E-035
  -1.1533333333333337E-005     1.5450826699949311E-034
  -1.1333333333333336E-005     5.4736319728798047E-034
  -1.1133333333333337E-005     1.1663047558653892E-033
  -1.0933333333333336E-005     2.0846611257467743E-033
  -1.0733333333333334E-005     3.3661628640038361E-033
  -1.0533333333333336E-005     4.9776857742407778E-033
  -1.0333333333333335E-005     6.5889953459095128E-033
  -1.0133333333333337E-005     7.2256802175805140E-033
  -9.9333333333333354E-006     4.8126462511609060E-033
  -9.7333333333333373E-006    -4.2014783467139439E-033
  -9.5333333333333358E-006    -2.4711656981099026E-032
  -9.3333333333333343E-006    -6.1623862906224845E-032
  -9.1333333333333362E-006    -1.1649000048609911E-031
  -8.9333333333333348E-006    -1.8152151695471552E-031
  -8.7333333333333367E-006    -2.3135557048931179E-031
  -8.5333333333333352E-006    -2.1490705691043114E-031
  -8.3333333333333371E-006    -5.2571870292212868E-032
  -8.1333333333333356E-006     3.5270893070619068E-031
  -7.9333333333333376E-006     1.0800784665196447E-030
  -7.7333333333333361E-006     2.1226946538260293E-030
  -7.5333333333333346E-006     3.2879214744552043E-030
  -7.3333333333333365E-006     4.0860957277432874E-030
  -7.1333333333333351E-006     3.6574043452866591E-030
  -6.9333333333333370E-006     8.1966878031961794E-031
  -6.7333333333333355E-006    -5.6570559382029272E-030
  -6.5333333333333374E-006    -1.6453373222306346E-029
  -6.3333333333333359E-006    -3.0757276394133862E-029
  -6.1333333333333379E-006    -4.5108855159916558E-029
  -5.9333333333333364E-006    -5.2412450021617300E-029
  -5.7333333333333349E-006    -4.1786998510456720E-029
  -5.5333333333333368E-006    -1.5698832867209467E-031
  -5.3333333333333354E-006     8.3515091887385635E-029
  -5.1333333333333373E-006     2.1090492920489567E-028
  -4.9333333333333358E-006     3.6455202983535812E-028
  -4.7333333333333377E-006     4.9805153524132402E-028
  -4.5333333333333362E-006     5.3084025911389142E-028
  -4.3333333333333348E-006     3.5417795896183285E-028
  -4.1333333333333367E-006    -1.4448714967693318E-028
  -3.9333333333333352E-006    -1.0338365041643781E-027
  -3.7333333333333371E-006    -2.2692116401838012E-027
  -3.5333333333333356E-006    -3.6140780989781688E-027
  -3.3333333333333376E-006    -4.5798699364161497E-027
  -3.1333333333333361E-006    -4.4261173088814651E-027
  -2.9333333333333346E-006    -2.2702930231752569E-027
  -2.7333333333333365E-006     2.6514343212975873E-027
  -2.5333333333333384E-006     1.0564057961733707E-026
  -2.3333333333333336E-006     2.0627506169764388E-026
  -2.1333333333333355E-006     3.0443948389669909E-026
  -1.9333333333333374E-006     3.5830631289224863E-026
  -1.7333333333333393E-006     3.1153874389095164E-026
  -1.5333333333333345E-006     1.0507088699778971E-026
  -1.3333333333333364E-006    -3.0123776409443033E-026
  -1.1333333333333383E-006    -8.9862267287972066E-026
  -9.3333333333333343E-007    -1.5971328867388840E-025
  -7.3333333333333535E-007    -2.2022435448635899E-025
  -5.3333333333333726E-007    -2.4158266132317975E-025
  -3.3333333333333918E-007    -1.8779692998088532E-025
  -1.3333333333333432E-007    -2.6134328038694038E-026
   6.6666666666663770E-008     2.5827449767286369E-025
   2.6666666666666185E-007     6.4479885045557136E-025
   4.6666666666666672E-007     1.0613349723827437E-024
   6.6666666666666480E-007     1.3770884535879558E-024
   8.6666666666666289E-007     1.4124206494555142E-024
   1.0666666666666610E-006     9.7290439226749039E-025
   1.2666666666666658E-006    -8.9842218504504345E-026
   1.4666666666666639E-006    -1.7962927122347675E-024
   1.6666666666666620E-006    -3.9530784168131219E-024
   1.8666666666666669E-006    -6.0915788052051484E-024
   2.0666666666666649E-006    -7.4676306345466568E-024
   2.2666666666666630E-006    -7.1582530426445884E-024
   2.4666666666666611E-006    -4.2772222732672276E-024
   2.6666666666666660E-006     1.6986648712410278E-024
   2.8666666666666641E-006     1.0544572402027159E-023
   3.0666666666666622E-006     2.0945446371620317E-023
   3.2666666666666602E-006     3.0338924537966635E-023
   3.4666666666666651E-006     3.5098148946016629E-023
   3.6666666666666632E-006     3.1174082073836464E-023
   3.8666666666666613E-006     1.5221197383250709E-023
   4.0666666666666661E-006    -1.3923717859979358E-023
   4.2666666666666642E-006    -5.3728501330608629E-023
   4.4666666666666623E-006    -9.6912387350728503E-023
   4.6666666666666604E-006    -1.3143999499454266E-022
   4.8666666666666652E-006    -1.4208836349326089E-022
   5.0666666666666633E-006    -1.1384131793174345E-022
   5.2666666666666614E-006    -3.6872124760485491E-023
   5.4666666666666663E-006     8.7775176946166265E-023
   5.6666666666666644E-006     2.4335920845626966E-022
   5.8666666666666624E-006     3.9547606123010043E-022
   6.0666666666666605E-006     4.9495502555710284E-022
   6.2666666666666654E-006     4.8692601580085564E-022
   6.4666666666666635E-006     3.2591996204732921E-022
   6.6666666666666616E-006    -5.2081616898940322E-024
   6.8666666666666664E-006    -4.7703236149561948E-022
   7.0666666666666645E-006    -1.0023059281927843E-021
   7.2666666666666626E-006    -1.4385629340544632E-021
   7.4666666666666607E-006    -1.6099171942696012E-021
   7.6666666666666655E-006    -1.3494310968667727E-021
   7.8666666666666636E-006    -5.5721863622917150E-022
   8.0666666666666617E-006     7.3788901661066012E-022
   8.2666666666666598E-006     2.3318505609388271E-021
   8.4666666666666647E-006     3.8360413474033161E-021
   8.6666666666666627E-006     4.7243189936156754E-021
   8.8666666666666608E-006     4.4456844527919416E-021
   9.0666666666666657E-006     2.5940863776719933E-021
   9.2666666666666638E-006    -8.9553031602695596E-022
   9.4666666666666619E-006    -5.5778127599727308E-021
   9.6666666666666599E-006    -1.0421183599617686E-020
   9.8666666666666648E-006    -1.3890917541477247E-020
   1.0066666666666663E-005    -1.4232544249815793E-020
   1.0266666666666661E-005    -9.9497565809530743E-021
   1.0466666666666666E-005    -4.0538814654603359E-022
   1.0666666666666664E-005     1.3596051667995544E-020
   1.0866666666666662E-005     2.9439956408398605E-020
   1.1066666666666660E-005     4.2757007283931586E-020
   1.1266666666666665E-005     4.8064950292762230E-020
   1.1466666666666663E-005     4.0040828508605684E-020
   1.1666666666666661E-005     1.5286502202110269E-020
   1.1866666666666666E-005    -2.5762800272767395E-020
   1.2066666666666664E-005    -7.7326576899260018E-020
   1.2266666666666662E-005    -1.2780225413420456E-019
   1.2466666666666660E-005    -1.6090055091689948E-019
   1.2666666666666665E-005    -1.5870611220672672E-019
   1.2866666666666663E-005    -1.0650908922446413E-019
   1.3066666666666661E-005     1.3525316739442344E-021
   1.3266666666666666E-005     1.5601280934646313E-019
   1.3466666666666664E-005     3.3076888517411183E-019
   1.3666666666666662E-005     4.8181038890915152E-019
   1.3866666666666660E-005     5.5436908825659426E-019
   1.4066666666666665E-005     4.9458496119834378E-019
   1.4266666666666663E-005     2.6579234762500865E-019
   1.4466666666666661E-005    -1.3388281011745208E-019
   1.4666666666666666E-005    -6.5730139399718044E-019
   1.4866666666666664E-005    -1.2029309696539223E-018
   1.5066666666666662E-005    -1.6232428749146998E-018
   1.5266666666666661E-005    -1.7496384155296640E-018
   1.5466666666666665E-005    -1.4328640865685151E-018
   1.5666666666666663E-005    -5.9300423025068243E-019
   1.5866666666666662E-005     7.3179891137579941E-019
   1.6066666666666660E-005     2.3523347602955856E-018
   1.6266666666666665E-005     3.9261685373550767E-018
   1.6466666666666663E-005     4.9981219228304944E-018
   1.6666666666666661E-005     5.0872088422096193E-018
   1.6866666666666666E-005     3.8120351030690030E-018
   1.7066666666666664E-005     1.0329413932740027E-018
   1.7266666666666662E-005    -3.0231383473916264E-018
   1.7466666666666660E-005    -7.6961289362411770E-018
   1.7666666666666665E-005    -1.1923441044700105E-017
   1.7866666666666663E-005    -1.4392844727511041E-017
   1.8066666666666661E-005    -1.3817164890420590E-017
   1.8266666666666666E-005    -9.2963818020681433E-018
   1.8466666666666664E-005    -6.9689079095530781E-019
   1.8666666666666662E-005     1.1050605935712427E-017
   1.8866666666666660E-005     2.3843668142130344E-017
   1.9066666666666665E-005     3.4584037540840802E-017
   1.9266666666666663E-005     3.9682922849916784E-017
   1.9466666666666661E-005     3.5866918660457124E-017
   1.9666666666666666E-005     2.1164521378411100E-017
   1.9866666666666664E-005    -4.1345108096172049E-018
   2.0066666666666662E-005    -3.6814423987493724E-017
   2.0266666666666660E-005    -7.0636889240430368E-017
   2.0466666666666665E-005    -9.7020294012608387E-017
   2.0666666666666663E-005    -1.0656041196444061E-016
   2.0866666666666661E-005    -9.1253541713197757E-017
   2.1066666666666659E-005    -4.7052474337968595E-017
   2.1266666666666664E-005     2.3817268718430554E-017
   2.1466666666666662E-005     1.1146638089550016E-016
   2.1666666666666660E-005     1.9852741170467346E-016
   2.1866666666666665E-005     2.6235025897500918E-016
   2.2066666666666663E-005     2.7924476028635395E-016
   2.2266666666666661E-005     2.3028162895446996E-016
   2.2466666666666659E-005     1.0761065613241843E-016
   2.2666666666666664E-005    -8.0187705508496901E-017
   2.2866666666666662E-005    -3.0538633693099269E-016
   2.3066666666666660E-005    -5.2250432388478253E-016
   2.3266666666666665E-005    -6.7464600198511104E-016
   2.3466666666666663E-005    -7.0459015522831059E-016
   2.3666666666666661E-005    -5.6915502053363548E-016
   2.3866666666666660E-005    -2.5410699979370543E-016
   2.4066666666666664E-005     2.1402818632494611E-016
   2.4266666666666662E-005     7.6311979523221432E-016
   2.4466666666666661E-005     1.2807180910612463E-015
   2.4666666666666665E-005     1.6309342719893432E-015
   2.4866666666666663E-005     1.6818358727582077E-015
   2.5066666666666662E-005     1.3393225066942050E-015
   2.5266666666666660E-005     5.8071901934036109E-016
   2.5466666666666665E-005    -5.2041731289348379E-016
   2.5666666666666663E-005    -1.7868304302995125E-015
   2.5866666666666661E-005    -2.9538995424816746E-015
   2.6066666666666666E-005    -3.7119573440651416E-015
   2.6266666666666664E-005    -3.7708338617130650E-015
   2.6466666666666662E-005    -2.9363395013274336E-015
   2.6666666666666660E-005    -1.1827589234064565E-015
   2.6866666666666665E-005     1.2976504692463903E-015
   2.7066666666666663E-005     4.0862877721400621E-015
   2.7266666666666661E-005     6.5834610991032770E-015
   2.7466666666666666E-005     8.1096040942692394E-015
   2.7666666666666664E-005     8.0515272380571372E-015
   2.7866666666666662E-005     6.0289006969407450E-015
   2.8066666666666667E-005     2.0450590831794880E-015
   2.8266666666666658E-005    -3.4187707114866403E-015
   2.8466666666666663E-005    -9.4027919079464155E-015
   2.8666666666666668E-005    -1.4584499656596302E-014
   2.8866666666666659E-005    -1.7511082532952045E-014
   2.9066666666666664E-005    -1.6919829420462668E-014
   2.9266666666666669E-005    -1.2089715337576401E-014
   2.9466666666666660E-005    -3.1462516700508396E-015
   2.9666666666666665E-005     8.7653639885223406E-015
   2.9866666666666656E-005     2.1511712463157560E-014
   3.0066666666666661E-005     3.2247631857508722E-014
   3.0266666666666666E-005     3.7928207988104725E-014
   3.0466666666666657E-005     3.5987865531851303E-014
   3.0666666666666662E-005     2.5062281757612133E-014
   3.0866666666666667E-005     5.5903477239251197E-015
   3.1066666666666658E-005    -1.9874507682907496E-014
   3.1266666666666663E-005    -4.6783076359775331E-014
   3.1466666666666668E-005    -6.9207030201053490E-014
   3.1666666666666659E-005    -8.0917777019063158E-014
   3.1866666666666664E-005    -7.6774312319946500E-014
   3.2066666666666656E-005    -5.4160283717677353E-014
   3.2266666666666660E-005    -1.4143126533616117E-014
   3.2466666666666665E-005     3.7976344643856307E-014
   3.2666666666666657E-005     9.2981973116442827E-014
   3.2866666666666661E-005     1.3903636879120712E-013
   3.3066666666666666E-005     1.6385308904870020E-013
   3.3266666666666658E-005     1.5742270967675752E-013
   3.3466666666666662E-005     1.1477290177524802E-013
   3.3666666666666667E-005     3.8128709055937221E-014
   3.3866666666666659E-005    -6.2148531537138734E-014
   3.4066666666666664E-005    -1.6830531921269892E-013
   3.4266666666666668E-005    -2.5778470056826690E-013
   3.4466666666666660E-005    -3.0742476188838904E-013
   3.4666666666666665E-005    -2.9861226624438710E-013
   3.4866666666666656E-005    -2.2238846711252110E-013
   3.5066666666666661E-005    -8.3321449331843986E-014
   3.5266666666666666E-005     9.8981488374622201E-014
   3.5466666666666657E-005     2.9151736178537042E-013
   3.5666666666666662E-005     4.5290388620420884E-013
   3.5866666666666667E-005     5.4124793998887162E-013
   3.6066666666666658E-005     5.2359052249319825E-013
   3.6266666666666663E-005     3.8505255272760189E-013
   3.6466666666666668E-005     1.3552837076032470E-013
   3.6666666666666659E-005    -1.8805690773741790E-013
   3.6866666666666664E-005    -5.2525378017745378E-013
   3.7066666666666669E-005    -8.0160323580739256E-013
   3.7266666666666660E-005    -9.4307126856505977E-013
   3.7466666666666665E-005    -8.9299214007110013E-013
   3.7666666666666656E-005    -6.2810352362229407E-013
   3.7866666666666661E-005    -1.6985623249736993E-013
   3.8066666666666666E-005     4.1241595463230045E-013
   3.8266666666666657E-005     1.0086277428924547E-012
   3.8466666666666662E-005     1.4855701817971303E-012
   3.8666666666666667E-005     1.7128814075868451E-012
   3.8866666666666658E-005     1.5929402887091923E-012
   3.9066666666666663E-005     1.0886161493726868E-012
   3.9266666666666668E-005     2.4225465012419651E-013
   3.9466666666666659E-005    -8.1986489719834785E-013
   3.9666666666666664E-005    -1.9010688667999698E-012
   3.9866666666666655E-005    -2.7658251377352987E-012
   4.0066666666666660E-005    -3.1852424591199692E-012
   4.0266666666666665E-005    -2.9887076249405774E-012
   4.0466666666666656E-005    -2.1111870967455637E-012
   4.0666666666666661E-005    -6.2499066345662875E-013
   4.0866666666666666E-005     1.2535382398178390E-012
   4.1066666666666657E-005     3.1878877870522501E-012
   4.1266666666666662E-005     4.7753532669607913E-012
   4.1466666666666667E-005     5.6239439492148079E-012
   4.1666666666666658E-005     5.4388470318136639E-012
   4.1866666666666663E-005     4.1009234161060804E-012
   4.2066666666666668E-005     1.7188104618159603E-012
   4.2266666666666660E-005    -1.3607348468424529E-012
   4.2466666666666664E-005    -4.5926981114532370E-012
   4.2666666666666656E-005    -7.3225045460441672E-012
   4.2866666666666661E-005    -8.9112329653647481E-012
   4.3066666666666665E-005    -8.8752036757107700E-012
   4.3266666666666657E-005    -7.0114713729920584E-012
   4.3466666666666662E-005    -3.4797882760038486E-012
   4.3666666666666666E-005     1.1829654171809393E-012
   4.3866666666666658E-005     6.1284149818651582E-012
   4.4066666666666663E-005     1.0339051732521955E-011
   4.4266666666666667E-005     1.2826641432990318E-011
   4.4466666666666659E-005     1.2850851301107638E-011
   4.4666666666666664E-005     1.0112886533868678E-011
   4.4866666666666655E-005     4.8783019362526135E-012
   4.5066666666666660E-005    -2.0075125573158265E-012
   4.5266666666666665E-005    -9.2289524168094857E-012
   4.5466666666666656E-005    -1.5227592304553201E-011
   4.5666666666666661E-005    -1.8513126249851291E-011
   4.5866666666666666E-005    -1.8000663144523269E-011
   4.6066666666666657E-005    -1.3303791297420162E-011
   4.6266666666666662E-005    -4.9131486442137625E-012
   4.6466666666666667E-005     5.7939059755076114E-012
   4.6666666666666658E-005     1.6737037444625503E-011
   4.6866666666666663E-005     2.5495437485499371E-011
   4.7066666666666668E-005     2.9793332609605266E-011
   4.7266666666666659E-005     2.8018546679779197E-011
   4.7466666666666664E-005     1.9665273131831380E-011
   4.7666666666666655E-005     5.5946604409663353E-012
   4.7866666666666660E-005    -1.1967161159543001E-011
   4.8066666666666665E-005    -2.9727104358312365E-011
   4.8266666666666656E-005    -4.3892639447064342E-011
   4.8466666666666661E-005    -5.0920401807116910E-011
   4.8666666666666666E-005    -4.8307239105293224E-011
   4.8866666666666657E-005    -3.5258606025281909E-011
   4.9066666666666662E-005    -1.3075465394309102E-011
   4.9266666666666667E-005     1.4857861827771478E-011
   4.9466666666666658E-005     4.3530680596395104E-011
   4.9666666666666663E-005     6.7163328624787494E-011
   4.9866666666666655E-005     8.0329244567480291E-011
   5.0066666666666659E-005     7.9133336212335547E-011
   5.0266666666666664E-005     6.2201945698390033E-011
   5.0466666666666656E-005     3.1252066557554241E-011
   5.0666666666666660E-005    -8.9287013477241774E-012
   5.0866666666666665E-005    -5.1152770339432597E-011
   5.1066666666666657E-005    -8.7082559217326321E-011
   5.1266666666666661E-005    -1.0885664776768692E-010
   5.1466666666666666E-005    -1.1078620522368562E-010
   5.1666666666666658E-005    -9.0767483931701024E-011
   5.1866666666666662E-005    -5.1078980275196940E-011
   5.2066666666666667E-005     1.6715848973352163E-012
   5.2266666666666659E-005     5.7527806759515158E-011
   5.2466666666666664E-005     1.0497897095191630E-010
   5.2666666666666655E-005     1.3326758985875624E-010
   5.2866666666666660E-005     1.3476770766130571E-010
   5.3066666666666665E-005     1.0692984369657578E-010
   5.3266666666666656E-005     5.3329220745176997E-011
   5.3466666666666661E-005    -1.6500950166081686E-011
   5.3666666666666666E-005    -8.8540955420437204E-011
   5.3866666666666657E-005    -1.4687818826919738E-010
   5.4066666666666662E-005    -1.7697934854158899E-010
   5.4266666666666667E-005    -1.6900507720922659E-010
   5.4466666666666658E-005    -1.2045541676841143E-010
   5.4666666666666663E-005    -3.7504806297984993E-011
   5.4866666666666668E-005     6.5398966285768877E-011
   5.5066666666666659E-005     1.6776755489680503E-010
   5.5266666666666664E-005     2.4684779204685844E-010
   5.5466666666666655E-005     2.8228974379663084E-010
   5.5666666666666660E-005     2.6079717236498302E-010
   5.5866666666666665E-005     1.7976043905819204E-010
   5.6066666666666656E-005     4.8987402943875469E-011
   5.6266666666666661E-005    -1.1003535652400064E-010
   5.6466666666666666E-005    -2.6744782726356514E-010
   5.6666666666666657E-005    -3.9044590193848915E-010
   5.6866666666666662E-005    -4.4989411414290545E-010
   5.7066666666666667E-005    -4.2683369779515546E-010
   5.7266666666666658E-005    -3.1749152207384918E-010
   5.7466666666666663E-005    -1.3557610024479351E-010
   5.7666666666666654E-005     8.8895669866559268E-011
   5.7866666666666659E-005     3.1433289733924243E-010
   5.8066666666666664E-005     4.9521024986287627E-010
   5.8266666666666655E-005     5.9127385611219125E-010
   5.8466666666666660E-005     5.7651204354828419E-010
   5.8666666666666665E-005     4.4596363940426138E-010
   5.8866666666666656E-005     2.1870855225051558E-010
   5.9066666666666661E-005    -6.3964266524246908E-011
   5.9266666666666666E-005    -3.4529168489452270E-010
   5.9466666666666657E-005    -5.6372299268929019E-010
   5.9666666666666662E-005    -6.6567847768768440E-010
   5.9866666666666667E-005    -6.1788029784918134E-010
   6.0066666666666659E-005    -4.1660586763937261E-010
   6.0266666666666663E-005    -9.1605129435869363E-011
   6.0466666666666655E-005     2.9667251540616988E-010
   6.0666666666666660E-005     6.6662248255149496E-010
   6.0866666666666664E-005     9.3047595474029574E-010
   6.1066666666666656E-005     1.0121524660770458E-009
   6.1266666666666661E-005     8.6455441642339689E-010
   6.1466666666666665E-005     4.8268496932387512E-010
   6.1666666666666657E-005    -9.0497220637350903E-011
   6.1866666666666662E-005    -7.6735335048397808E-010
   6.2066666666666666E-005    -1.4281340501183778E-009
   6.2266666666666658E-005    -1.9411243664103615E-009
   6.2466666666666663E-005    -2.1869661532416993E-009
   6.2666666666666668E-005    -2.0826460483114560E-009
   6.2866666666666659E-005    -1.6003616671072241E-009
   6.3066666666666664E-005    -7.7716713647711769E-010
   6.3266666666666655E-005     2.8712264275959520E-010
   6.3466666666666660E-005     1.4440825903373193E-009
   6.3666666666666665E-005     2.5207710285458537E-009
   6.3866666666666656E-005     3.3495107827799407E-009
   6.4066666666666661E-005     3.7976958941475551E-009
   6.4266666666666666E-005     3.7916524268813931E-009
   6.4466666666666657E-005     3.3295053005928331E-009
   6.4666666666666662E-005     2.4800558826339305E-009
   6.4866666666666667E-005     1.3674901536144679E-009
   6.5066666666666658E-005     1.4479236456807892E-010
   6.5266666666666663E-005    -1.0386436751490703E-009
   6.5466666666666654E-005    -2.0680940864352468E-009
   6.5666666666666659E-005    -2.8859929519557101E-009
   6.5866666666666664E-005    -3.5000005107953514E-009
   6.6066666666666655E-005    -3.9736725984683754E-009
   6.6266666666666660E-005    -4.4005715912632331E-009
   6.6466666666666665E-005    -4.8666408429729207E-009
   6.6666666666666656E-005    -5.4090103878899723E-009
   6.6866666666666661E-005    -5.9812675653570208E-009
   6.7066666666666666E-005    -6.4351222159238582E-009
   6.7266666666666657E-005    -6.5260479359770920E-009
   6.7466666666666662E-005    -5.9462254760347916E-009
   6.7666666666666667E-005    -4.3825821895584771E-009
   6.7866666666666658E-005    -1.5919615095884055E-009
   6.8066666666666663E-005     2.5194634605812859E-009
   6.8266666666666655E-005     7.8281983211972851E-009
   6.8466666666666659E-005     1.3952690878217082E-008
   6.8666666666666664E-005     2.0252641917086348E-008
   6.8866666666666656E-005     2.5875323720020673E-008
   6.9066666666666660E-005     2.9848157759157062E-008
   6.9266666666666665E-005     3.1208287994067722E-008
   6.9466666666666657E-005     2.9152365994900358E-008
   6.9666666666666661E-005     2.3184493094628737E-008
   6.9866666666666666E-005     1.3238409908630365E-008
   7.0066666666666658E-005    -2.4769025863069795E-010
   7.0266666666666662E-005    -1.6319460349581790E-008
   7.0466666666666654E-005    -3.3564556355586397E-008
   7.0666666666666659E-005    -5.0236979659421944E-008
   7.0866666666666664E-005    -6.4433800670059887E-008
   7.1066666666666655E-005    -7.4302481197047945E-008
   7.1266666666666660E-005    -7.8252418777535177E-008
   7.1466666666666665E-005    -7.5143945853173023E-008
   7.1666666666666656E-005    -6.4432100132155890E-008
   7.1866666666666661E-005    -4.6249694220199525E-008
   7.2066666666666666E-005    -2.1423402877057038E-008
   7.2266666666666657E-005     8.5737515055834126E-009
   7.2466666666666662E-005     4.1722879165296217E-008
   7.2666666666666667E-005     7.5597014936932005E-008
   7.2866666666666658E-005     1.0752006700114341E-007
   7.3066666666666663E-005     1.3473302000409346E-007
   7.3266666666666654E-005     1.5455896899076220E-007
   7.3466666666666659E-005     1.6456448951259164E-007
   7.3666666666666664E-005     1.6271944616506784E-007
   7.3866666666666655E-005     1.4755979926530670E-007
   7.4066666666666660E-005     1.1835565087103178E-007
   7.4266666666666665E-005     7.5281056287600365E-008
   7.4466666666666656E-005     1.9573535123633625E-008
   7.4666666666666661E-005    -4.6339890580497753E-008
   7.4866666666666666E-005    -1.1878017424862740E-007
   7.5066666666666657E-005    -1.9285328401900560E-007
   7.5266666666666662E-005    -2.6261876562435653E-007
   7.5466666666666653E-005    -3.2141275781165446E-007