  -3.3333333333333335E-005     0.0000000000000000     
  -3.3133333333333337E-005     0.0000000000000000     
  -3.2933333333333332E-005     0.0000000000000000     
  -3.2733333333333334E-005     0.0000000000000000     
  -3.2533333333333336E-005     0.0000000000000000     
  -3.2333333333333338E-005     0.0000000000000000     
  -3.2133333333333333E-005     0.0000000000000000     
  -3.1933333333333335E-005     0.0000000000000000     
  -3.1733333333333337E-005     0.0000000000000000     
  -3.1533333333333332E-005     0.0000000000000000     
  -3.1333333333333334E-005     0.0000000000000000     
  -3.1133333333333336E-005     0.0000000000000000     
  -3.0933333333333338E-005     0.0000000000000000     
  -3.0733333333333333E-005     0.0000000000000000     
  -3.0533333333333335E-005     0.0000000000000000     
  -3.0333333333333337E-005     0.0000000000000000     
  -3.0133333333333335E-005     0.0000000000000000     
  -2.9933333333333334E-005     0.0000000000000000     
  -2.9733333333333336E-005     0.0000000000000000     
  -2.9533333333333334E-005     0.0000000000000000     
  -2.9333333333333336E-005     0.0000000000000000     
  -2.9133333333333334E-005     0.0000000000000000     
  -2.8933333333333336E-005     0.0000000000000000     
  -2.8733333333333335E-005     0.0000000000000000     
  -2.8533333333333333E-005     0.0000000000000000     
  -2.8333333333333335E-005     0.0000000000000000     
  -2.8133333333333337E-005     0.0000000000000000     
  -2.7933333333333336E-005     0.0000000000000000     
  -2.7733333333333334E-005     0.0000000000000000     
  -2.7533333333333336E-005     0.0000000000000000     
  -2.7333333333333335E-005     0.0000000000000000     
  -2.7133333333333333E-005     0.0000000000000000     
  -2.6933333333333335E-005     0.0000000000000000     
  -2.6733333333333337E-005     0.0000000000000000     
  -2.6533333333333336E-005     0.0000000000000000     
  -2.6333333333333334E-005     0.0000000000000000     
  -2.6133333333333336E-005     0.0000000000000000     
  -2.5933333333333335E-005     0.0000000000000000     
  -2.5733333333333333E-005     0.0000000000000000     
  -2.5533333333333335E-005     0.0000000000000000     
  -2.5333333333333337E-005     0.0000000000000000     
  -2.5133333333333336E-005     0.0000000000000000     
  -2.4933333333333334E-005     0.0000000000000000     
  -2.4733333333333336E-005     0.0000000000000000     
  -2.4533333333333334E-005     0.0000000000000000     
  -2.4333333333333333E-005     0.0000000000000000     
  -2.4133333333333335E-005     0.0000000000000000     
  -2.3933333333333337E-005     0.0000000000000000     
  -2.3733333333333335E-005     0.0000000000000000     
  -2.3533333333333334E-005     0.0000000000000000     
  -2.3333333333333336E-005     0.0000000000000000     
  -2.3133333333333338E-005     0.0000000000000000     
  -2.2933333333333336E-005     0.0000000000000000     
  -2.2733333333333335E-005     0.0000000000000000     
  -2.2533333333333337E-005     0.0000000000000000     
  -2.2333333333333335E-005     0.0000000000000000     
  -2.2133333333333334E-005     0.0000000000000000     
  -2.1933333333333336E-005     0.0000000000000000     
  -2.1733333333333338E-005     0.0000000000000000     
  -2.1533333333333336E-005     0.0000000000000000     
  -2.1333333333333335E-005     0.0000000000000000     
  -2.1133333333333337E-005     0.0000000000000000     
  -2.0933333333333335E-005     0.0000000000000000     
  -2.0733333333333334E-005     0.0000000000000000     
  -2.0533333333333336E-005     0.0000000000000000     
  -2.0333333333333337E-005     0.0000000000000000     
  -2.0133333333333336E-005     0.0000000000000000     
  -1.9933333333333334E-005     0.0000000000000000     
  -1.9733333333333336E-005     0.0000000000000000     
  -1.9533333333333335E-005     0.0000000000000000     
  -1.9333333333333333E-005     0.0000000000000000     
  -1.9133333333333335E-005     0.0000000000000000     
  -1.8933333333333337E-005     0.0000000000000000     
  -1.8733333333333336E-005     0.0000000000000000     
  -1.8533333333333334E-005     0.0000000000000000     
  -1.8333333333333336E-005     0.0000000000000000     
  -1.8133333333333335E-005     0.0000000000000000     
  -1.7933333333333337E-005     0.0000000000000000     
  -1.7733333333333335E-005     0.0000000000000000     
  -1.7533333333333337E-005     0.0000000000000000     
  -1.7333333333333336E-005     0.0000000000000000     
  -1.7133333333333334E-005     0.0000000000000000     
  -1.6933333333333336E-005     0.0000000000000000     
  -1.6733333333333335E-005     0.0000000000000000     
  -1.6533333333333337E-005     0.0000000000000000     
  -1.6333333333333335E-005     0.0000000000000000     
  -1.6133333333333337E-005     0.0000000000000000     
  -1.5933333333333336E-005     0.0000000000000000     
  -1.5733333333333334E-005     0.0000000000000000     
  -1.5533333333333336E-005     0.0000000000000000     
  -1.5333333333333334E-005     0.0000000000000000     
  -1.5133333333333336E-005     0.0000000000000000     
  -1.4933333333333335E-005     0.0000000000000000     
  -1.4733333333333337E-005     0.0000000000000000     
  -1.4533333333333335E-005     0.0000000000000000     
  -1.4333333333333337E-005     0.0000000000000000     
  -1.4133333333333336E-005     0.0000000000000000     
  -1.3933333333333334E-005     0.0000000000000000     
  -1.3733333333333336E-005     0.0000000000000000     
  -1.3533333333333335E-005     0.0000000000000000     
  -1.3333333333333337E-005     0.0000000000000000     
  -1.3133333333333335E-005     0.0000000000000000     
  -1.2933333333333337E-005     0.0000000000000000     
  -1.2733333333333336E-005     0.0000000000000000     
  -1.2533333333333338E-005     0.0000000000000000     
  -1.2333333333333336E-005     0.0000000000000000     
  -1.2133333333333335E-005     0.0000000000000000     
  -1.1933333333333337E-005     0.0000000000000000     
  -1.1733333333333335E-005     0.0000000000000000     
  -1.1533333333333337E-005     0.0000000000000000     
  -1.1333333333333336E-005     0.0000000000000000     
  -1.1133333333333337E-005     0.0000000000000000     
  -1.0933333333333336E-005     0.0000000000000000     
  -1.0733333333333334E-005     0.0000000000000000     
  -1.0533333333333336E-005     0.0000000000000000     
  -1.0333333333333335E-005     0.0000000000000000     
  -1.0133333333333337E-005     0.0000000000000000     
  -9.9333333333333354E-006     0.0000000000000000     
  -9.7333333333333373E-006     0.0000000000000000     
  -9.5333333333333358E-006     6.0703472123575668E-041
  -9.3333333333333343E-006     1.5908316385882184E-040
  -9.1333333333333362E-006     2.6031871709413061E-040
  -8.9333333333333348E-006     4.1202816980798874E-040
  -8.7333333333333367E-006     1.1582327956999204E-040
  -8.5333333333333352E-006    -3.5382940752128979E-040
  -8.3333333333333371E-006    -3.3370760654794878E-040
  -8.1333333333333356E-006    -5.1004226910222008E-040
  -7.9333333333333376E-006    -9.6641235481092122E-040
  -7.7333333333333361E-006    -1.0478676631716599E-039
  -7.5333333333333346E-006     1.3733607681642338E-040
  -7.3333333333333365E-006    -3.7043588206731858E-040
  -7.1333333333333351E-006    -1.1043782671779516E-039
  -6.9333333333333370E-006    -2.9955398556326731E-040
  -6.7333333333333355E-006     3.3778344194251259E-039
  -6.5333333333333374E-006     1.4432861025016142E-038
  -6.3333333333333359E-006     2.7768585048057954E-038
  -6.1333333333333379E-006     3.1168547977828747E-038
  -5.9333333333333364E-006     2.9520574712817917E-038
  -5.7333333333333349E-006     5.9972704033347793E-039
  -5.5333333333333368E-006    -2.5477730038215475E-038
  -5.3333333333333354E-006    -7.8410253097450103E-038
  -5.1333333333333373E-006    -1.5106022377137789E-037
  -4.9333333333333358E-006    -2.4732694248169098E-037
  -4.7333333333333377E-006    -3.5471262020517274E-037
  -4.5333333333333362E-006    -4.2427542143702954E-037
  -4.3333333333333348E-006    -4.0162632722262002E-037
  -4.1333333333333367E-006    -2.1798876175885486E-037
  -3.9333333333333352E-006     2.1312144806349111E-037
  -3.7333333333333371E-006     9.4713063793251286E-037
  -3.5333333333333356E-006     1.9801942140890754E-036
  -3.3333333333333376E-006     3.1961125328988698E-036
  -3.1333333333333361E-006     4.3343302142621313E-036
  -2.9333333333333346E-006     4.9590174148474835E-036
  -2.7333333333333365E-006     4.4683736285592364E-036
  -2.5333333333333384E-006     2.1625781057582698E-036
  -2.3333333333333336E-006    -2.6059994483611082E-036
  -2.1333333333333355E-006    -1.0190892195637553E-035
  -1.9333333333333374E-006    -2.0332960887859627E-035
  -1.7333333333333393E-006    -3.1814331198240666E-035
  -1.5333333333333345E-006    -4.2176477381111634E-035
  -1.3333333333333364E-006    -4.7604435648012748E-035
  -1.1333333333333383E-006    -4.3116937273003250E-035
  -9.3333333333333343E-007    -2.3159370462237841E-035
  -7.3333333333333535E-007     1.7327952432256456E-035
  -5.3333333333333726E-007     8.1356639648935775E-035
  -3.3333333333333918E-007     1.6790218198102065E-034
  -1.3333333333333432E-007     2.6958765020641710E-034
   6.6666666666663770E-008     3.7020868022470892E-034
   2.6666666666666185E-007     4.4239439263052039E-034
   4.6666666666666672E-007     4.4597328465781357E-034
   6.6666666666666480E-007     3.2815417728465471E-034
   8.6666666666666289E-007     2.7476714770420575E-035
   1.0666666666666610E-006    -5.1548993922059331E-034
   1.2666666666666658E-006    -1.3369880735059040E-033
   1.4666666666666639E-006    -2.4151549526953617E-033
   1.6666666666666620E-006    -3.6209020413532585E-033
   1.8666666666666669E-006    -4.6607278160441756E-033
   2.0666666666666649E-006    -5.0286086000880769E-033
   2.2666666666666630E-006    -3.9985768005246294E-033
   2.4666666666666611E-006    -7.0372056149588344E-034
   2.6666666666666660E-006     5.6464302564842928E-033
   2.8666666666666641E-006     1.5370687198407633E-032
   3.0666666666666622E-006     2.7747262902527602E-032
   3.2666666666666602E-006     4.0358241294293894E-032
   3.4666666666666651E-006     4.8554880338973437E-032
   3.6666666666666632E-006     4.5386523437919764E-032
   3.8666666666666613E-006     2.2438171540687028E-032
   4.0666666666666661E-006    -2.7984838032103897E-032
   4.2666666666666642E-006    -1.0909197759891749E-031
   4.4666666666666623E-006    -2.1451187058585762E-031
   4.6666666666666604E-006    -3.2289324377577918E-031
   4.8666666666666652E-006    -3.9420955560514417E-031
   5.0666666666666633E-006    -3.7069608495733387E-031
   5.2666666666666614E-006    -1.8577291081458145E-031
   5.4666666666666663E-006     2.1633808664735341E-031
   5.6666666666666644E-006     8.4987325114874986E-031
   5.8666666666666624E-006     1.6494554934376209E-030
   6.0666666666666605E-006     2.4343778678338041E-030
   6.2666666666666654E-006     2.8913316367116990E-030
   6.4666666666666635E-006     2.5963448757577362E-030
   6.6666666666666616E-006     1.0964817886634232E-030
   6.8666666666666664E-006    -1.9367511976698939E-030
   7.0666666666666645E-006    -6.4899062535230658E-030
   7.2666666666666626E-006    -1.1964209986911026E-029
   7.4666666666666607E-006    -1.6981779206551182E-029
   7.6666666666666655E-006    -1.9350912650988325E-029
   7.8666666666666636E-006    -1.6315057267484461E-029
   8.0666666666666617E-006    -5.1875118688166404E-030
   8.2666666666666598E-006     1.5603103792690635E-029
   8.4666666666666647E-006     4.5170192556542154E-029
   8.6666666666666627E-006     7.8830934676804045E-029
   8.8666666666666608E-006     1.0727252771786430E-028
   9.0666666666666657E-006     1.1686371280687651E-028
   9.2666666666666638E-006     9.1744620176401478E-029
   9.4666666666666619E-006     1.8079801882952051E-029
   9.6666666666666599E-006    -1.0968961433548384E-028
   9.8666666666666648E-006    -2.8159407477444349E-028
   1.0066666666666663E-005    -4.6587368793513160E-028
   1.0266666666666661E-005    -6.0657391099458585E-028
   1.0466666666666666E-005    -6.2823912432246480E-028
   1.0666666666666664E-005    -4.5036919111661919E-028
   1.0866666666666662E-005    -1.2418480338603480E-029
   1.1066666666666660E-005     6.9317845892428332E-028
   1.1266666666666665E-005     1.5868225719564102E-027
   1.1466666666666663E-005     2.4777390782469090E-027
   1.1666666666666661E-005     3.0645055027307102E-027
   1.1866666666666666E-005     2.9741848384078282E-027
   1.2066666666666664E-005     1.8486803698706639E-027
   1.2266666666666662E-005    -5.2467764188768567E-028
   1.2466666666666660E-005    -4.0584318208640815E-027
   1.2666666666666665E-005    -8.2260224051478225E-027
   1.2866666666666663E-005    -1.1995196355227657E-026
   1.3066666666666661E-005    -1.3896845847286815E-026
   1.3266666666666666E-005    -1.2280346553900786E-026
   1.3466666666666664E-005    -5.7702249343788642E-027
   1.3666666666666662E-005     6.1221258389606610E-027
   1.3866666666666660E-005     2.2356023142930091E-026
   1.4066666666666665E-005     3.9890012820405467E-026
   1.4266666666666663E-005     5.3632350091120515E-026
   1.4466666666666661E-005     5.7054075509508016E-026
   1.4666666666666666E-005     4.3607592413295696E-026
   1.4866666666666664E-005     8.8959528474815668E-027
   1.5066666666666662E-005    -4.6743611495651767E-026
   1.5266666666666661E-005    -1.1589218221802672E-025
   1.5466666666666665E-005    -1.8284351329171984E-025
   1.5666666666666663E-005    -2.2452771105366368E-025
   1.5866666666666662E-005    -2.1434365754790839E-025
   1.6066666666666660E-005    -1.2910593750401211E-025
   1.6266666666666665E-005     4.1618018974363924E-026
   1.6466666666666663E-005     2.8565826932382982E-025
   1.6666666666666661E-005     5.6086093136546461E-025
   1.6866666666666666E-005     7.9381799977634944E-025
   1.7066666666666664E-005     8.8813864723108759E-025
   1.7266666666666662E-005     7.4424873143742427E-025
   1.7466666666666660E-005     2.8991680641521325E-025
   1.7666666666666665E-005    -4.8316882434420836E-025
   1.7866666666666663E-005    -1.4856472569794505E-024
   1.8066666666666661E-005    -2.5117525599929081E-024
   1.8266666666666666E-005    -3.2487510920672467E-024
   1.8466666666666664E-005    -3.3248558927922945E-024
   1.8666666666666662E-005    -2.3984670157499521E-024
   1.8866666666666660E-005    -2.7974733389416957E-025
   1.9066666666666665E-005     2.9388556688337885E-024
   1.9266666666666663E-005     6.7800946880561540E-024
   1.9466666666666661E-005     1.0352380814219622E-023
   1.9666666666666666E-005     1.2435604373056549E-023
   1.9866666666666664E-005     1.1707665625031441E-023
   2.0066666666666662E-005     7.1044660445917082E-024
   2.0266666666666660E-005    -1.7385869932212866E-024
   2.0466666666666665E-005    -1.4063692059686422E-023
   2.0666666666666663E-005    -2.7724515751421938E-023
   2.0866666666666661E-005    -3.9226659415858183E-023
   2.1066666666666659E-005    -4.4195089971481395E-023
   2.1266666666666664E-005    -3.8309685731023843E-023
   2.1466666666666662E-005    -1.8624611439355435E-023
   2.1666666666666660E-005     1.4965229642515100E-023
   2.1866666666666665E-005     5.8491496557916983E-023
   2.2066666666666663E-005     1.0338228153662168E-022
   2.2266666666666661E-005     1.3708560842477177E-022
   2.2466666666666659E-005     1.4513539460750767E-022
   2.2666666666666664E-005     1.1463382651056422E-022
   2.2866666666666662E-005     3.8688589339481453E-023
   2.3066666666666660E-005    -7.9128050623631454E-023
   2.3266666666666665E-005    -2.2161266168448632E-022
   2.3466666666666663E-005    -3.5750995239544172E-022
   2.3666666666666661E-005    -4.4505229593191903E-022
   2.3866666666666660E-005    -4.3997879953331739E-022
   2.4066666666666664E-005    -3.0743301959841082E-022
   2.4266666666666662E-005    -3.5759308267724439E-023
   2.4466666666666661E-005     3.5110646951069126E-022
   2.4666666666666665E-005     7.8681601850740032E-022
   2.4866666666666663E-005     1.1654843059226325E-021
   2.5066666666666662E-005     1.3571237439954370E-021
   2.5266666666666660E-005     1.2359184869201374E-021
   2.5466666666666665E-005     7.1798915216305324E-022
   2.5666666666666663E-005    -1.9871623643931012E-022
   2.5866666666666661E-005    -1.4031284915326924E-021
   2.6066666666666666E-005    -2.6605766383270800E-021
   2.6266666666666664E-005    -3.6338346857942888E-021
   2.6466666666666662E-005    -3.9412662008518332E-021
   2.6666666666666660E-005    -3.2490180558916058E-021
   2.6866666666666665E-005    -1.3833450810706571E-021
   2.7066666666666663E-005     1.5616302486008325E-021
   2.7266666666666661E-005     5.1529993524553461E-021
   2.7466666666666666E-005     8.6183266107555195E-021
   2.7666666666666664E-005     1.0940366869358612E-020
   2.7866666666666662E-005     1.1054471913680469E-020
   2.8066666666666667E-005     8.1294640852751801E-021
   2.8266666666666658E-005     1.8825532441385923E-021
   2.8466666666666663E-005    -7.1478779785301160E-021
   2.8666666666666668E-005    -1.7462362971365645E-020
   2.8866666666666659E-005    -2.6678189265764474E-020
   2.9066666666666664E-005    -3.1878270033181484E-020
   2.9266666666666669E-005    -3.0227268759535382E-020
   2.9466666666666660E-005    -1.9775944896358448E-020
   2.9666666666666665E-005    -2.9622167055725674E-022
   2.9866666666666656E-005     2.6071460402181924E-020
   3.0066666666666661E-005     5.4597972518813585E-020
   3.0266666666666666E-005     7.8373943889748527E-020
   3.0466666666666657E-005     8.9442784576033184E-020
   3.0666666666666662E-005     8.0588422069952317E-020
   3.0866666666666667E-005     4.7507753276354360E-020
   3.1066666666666658E-005    -9.0927756187175505E-021
   3.1266666666666663E-005    -8.2063283712895290E-020
   3.1466666666666668E-005    -1.5763345316644214E-019
   3.1666666666666659E-005    -2.1693632303892807E-019
   3.1866666666666664E-005    -2.3936005285696362E-019
   3.2066666666666656E-005    -2.0740683189447815E-019
   3.2266666666666660E-005    -1.1223815105476278E-019
   3.2466666666666665E-005     4.1347276040551200E-020
   3.2666666666666657E-005     2.3198619741124442E-019
   3.2866666666666661E-005     4.2226256284867540E-019
   3.3066666666666666E-005     5.6355483604853180E-019
   3.3266666666666658E-005     6.0524206364982442E-019
   3.3466666666666662E-005     5.0715295129491931E-019
   3.3666666666666667E-005     2.5296803317771483E-019
   3.3866666666666659E-005    -1.3863218460077705E-019
   3.4066666666666664E-005    -6.0861647852497826E-019
   3.4266666666666668E-005    -1.0611018432173703E-018
   3.4466666666666660E-005    -1.3773214495655821E-018
   3.4666666666666665E-005    -1.4394255701136219E-018
   3.4866666666666656E-005    -1.1607492634330014E-018
   3.5066666666666661E-005    -5.1656951314980484E-019
   3.5266666666666666E-005     4.3241625510415729E-019
   3.5466666666666657E-005     1.5319261885421241E-018
   3.5666666666666662E-005     2.5475465825881679E-018
   3.5866666666666667E-005     3.2022644823649038E-018
   3.6066666666666658E-005     3.2350341582715274E-018
   3.6266666666666663E-005     2.4711149607115325E-018
   3.6466666666666668E-005     8.8941422306270970E-019
   3.6666666666666659E-005    -1.3311070575634807E-018
   3.6866666666666664E-005    -3.8033412971667415E-018
   3.7066666666666669E-005    -5.9744558520167847E-018
   3.7266666666666660E-005    -7.2213902806689734E-018
   3.7466666666666665E-005    -6.9891777551542949E-018
   3.7666666666666656E-005    -4.9482977176497534E-018
   3.7866666666666661E-005    -1.1362873147103126E-018
   3.8066666666666666E-005     3.9561631279800633E-018
   3.8266666666666657E-005     9.3905954224014628E-018
   3.8466666666666662E-005     1.3899753348395449E-017
   3.8666666666666667E-005     1.6119287592917448E-017
   3.8866666666666658E-005     1.4902829929712051E-017
   3.9066666666666663E-005     9.6627766934281800E-018
   3.9266666666666668E-005     6.5827020977222849E-019
   3.9466666666666659E-005    -1.0854506166721200E-017
   3.9666666666666664E-005    -2.2681322264991371E-017
   3.9866666666666655E-005    -3.1995382142020124E-017
   4.0066666666666660E-005    -3.5874431217567735E-017
   4.0266666666666665E-005    -3.1993678548941937E-017
   4.0466666666666656E-005    -1.9341837501982471E-017
   4.0666666666666661E-005     1.2100207820605548E-018
   4.0866666666666666E-005     2.6661614565560264E-017
   4.1066666666666657E-005     5.2095898756567308E-017
   4.1266666666666662E-005     7.1407980712102069E-017
   4.1466666666666667E-005     7.8494726263898651E-017
   4.1666666666666658E-005     6.8723914766412994E-017
   4.1866666666666663E-005     4.0391627612650149E-017
   4.2066666666666668E-005    -4.1874316818041928E-018
   4.2266666666666660E-005    -5.8304269487466643E-017
   4.2466666666666664E-005    -1.1144779106687553E-016
   4.2666666666666656E-005    -1.5094106091619003E-016
   4.2866666666666661E-005    -1.6446290194939558E-016
   4.3066666666666665E-005    -1.4304725737131833E-016
   4.3266666666666657E-005    -8.3947755986460921E-017
   4.3466666666666662E-005     7.3474120940001295E-018
   4.3666666666666666E-005     1.1661676307221189E-016
   4.3866666666666658E-005     2.2237080189768602E-016
   4.4066666666666663E-005     2.9935515140468530E-016
   4.4266666666666667E-005     3.2369377854044374E-016
   4.4466666666666659E-005     2.7879827570549027E-016
   4.4666666666666664E-005     1.6080077570312216E-016
   4.4866666666666655E-005    -1.7879384912804505E-017
   4.5066666666666660E-005    -2.2807232327614269E-016
   4.5266666666666665E-005    -4.2725367652522683E-016
   4.5466666666666656E-005    -5.6679559840996206E-016
   4.5666666666666661E-005    -6.0215233140606499E-016
   4.5866666666666666E-005    -5.0417325586593624E-016
   4.6066666666666657E-005    -2.6910120651770809E-016
   4.6266666666666662E-005     7.5374452605611605E-017
   4.6466666666666667E-005     4.7023983791858020E-016
   4.6666666666666658E-005     8.3267580333117503E-016
   4.6866666666666663E-005     1.0706980259301238E-015
   4.7066666666666668E-005     1.1029073556641640E-015
   4.7266666666666659E-005     8.7973726432530282E-016
   4.7466666666666664E-005     4.0151390331301363E-016
   4.7666666666666655E-005    -2.7153443688227166E-016
   4.7866666666666660E-005    -1.0212561176734611E-015
   4.8066666666666665E-005    -1.6874516989816158E-015
   4.8266666666666656E-005    -2.0966853537876389E-015
   4.8466666666666661E-005    -2.0998729942487194E-015
   4.8666666666666666E-005    -1.6116465724330272E-015
   4.8866666666666657E-005    -6.4273376996321532E-016
   4.9066666666666662E-005     6.8346105767283861E-016
   4.9266666666666667E-005     2.1369168186372994E-015
   4.9466666666666658E-005     3.4126159601457651E-015
   4.9666666666666663E-005     4.1853142176289999E-015
   4.9866666666666655E-005     4.1792974648248795E-015
   5.0066666666666659E-005     3.2400264641746576E-015
   5.0266666666666664E-005     1.3917486939736423E-015
   5.0466666666666656E-005    -1.1345391047370197E-015
   5.0666666666666660E-005    -3.9144559838977641E-015
   5.0866666666666665E-005    -6.3893178807530070E-015
   5.1066666666666657E-005    -7.9657401538720117E-015
   5.1266666666666661E-005    -8.1405008640159665E-015
   5.1466666666666666E-005    -6.6270567555788723E-015
   5.1666666666666658E-005    -3.4556843701970979E-015
   5.1866666666666662E-005     9.7960917513553903E-016
   5.2066666666666667E-005     5.9468091150316422E-015
   5.2266666666666659E-005     1.0480555450734479E-014
   5.2466666666666664E-005     1.3555378359927111E-014
   5.2666666666666655E-005     1.4300034011536109E-014
   5.2866666666666660E-005     1.2211771146482277E-014
   5.3066666666666665E-005     7.3227793596972908E-015
   5.3266666666666656E-005     2.7410688077456576E-016
   5.3466666666666661E-005    -7.7339235893858302E-015
   5.3666666666666666E-005    -1.5122963514154723E-014
   5.3866666666666657E-005    -2.0229358411901622E-014
   5.4066666666666662E-005    -2.1659936932030013E-014
   5.4266666666666667E-005    -1.8640670998023843E-014
   5.4466666666666658E-005    -1.1278773651725600E-014
   5.4666666666666663E-005    -6.6594295617108708E-016
   5.4866666666666668E-005     1.1224848958614978E-014
   5.5066666666666659E-005     2.1857337591407561E-014
   5.5266666666666664E-005     2.8625787085652745E-014
   5.5466666666666655E-005     2.9439907056197015E-014
   5.5666666666666660E-005     2.3282322236072970E-014
   5.5866666666666665E-005     1.0607834182297865E-014
   5.6066666666666656E-005    -6.5309237119595093E-015
   5.6266666666666661E-005    -2.4703003935629704E-014
   5.6466666666666666E-005    -3.9668650739379977E-014
   5.6666666666666657E-005    -4.7225488072506398E-014
   5.6866666666666662E-005    -4.4184149199363356E-014
   5.7066666666666667E-005    -2.9274021240675599E-014
   5.7266666666666658E-005    -3.7641035297506915E-015
   5.7466666666666663E-005     2.8386106047921987E-014
   5.7666666666666654E-005     6.0954825984467566E-014
   5.7866666666666659E-005     8.6462799771722075E-014
   5.8066666666666664E-005     9.7624178605793865E-014
   5.8266666666666655E-005     8.8994264430158061E-014
   5.8466666666666660E-005     5.8483506051773465E-014
   5.8666666666666665E-005     8.3862635743025532E-015
   5.8866666666666656E-005    -5.4374133900028730E-014
   5.9066666666666661E-005    -1.1895682638098163E-013
   5.9266666666666666E-005    -1.7226206800645540E-013
   5.9466666666666657E-005    -2.0132264268090855E-013
   5.9666666666666662E-005    -1.9602539369007006E-013
   5.9866666666666667E-005    -1.5163278053028208E-013
   6.0066666666666659E-005    -7.0544416379930339E-014
   6.0266666666666663E-005     3.7176069848426947E-014
   6.0466666666666655E-005     1.5478411315278295E-013
   6.0666666666666660E-005     2.6133831621487713E-013
   6.0866666666666664E-005     3.3535815735001712E-013
   6.1066666666666656E-005     3.5903879703129590E-013
   6.1266666666666661E-005     3.2221333061964687E-013
   6.1466666666666665E-005     2.2520896698599177E-013
   6.1666666666666657E-005     7.9877652825636366E-014
   6.1866666666666662E-005    -9.1615384103278910E-014
   6.2066666666666666E-005    -2.6023309786586510E-013
   6.2266666666666658E-005    -3.9525124420780910E-013
   6.2466666666666663E-005    -4.7027419431969891E-013
   6.2666666666666668E-005    -4.6889455063290145E-013
   6.2866666666666659E-005    -3.8875876425402568E-013
   6.3066666666666664E-005    -2.4301355141861164E-013
   6.3266666666666655E-005    -5.8569103657400366E-014
   6.3466666666666660E-005     1.2875179904712334E-013
   6.3666666666666665E-005     2.8141786340346087E-013
   6.3866666666666656E-005     3.6838610560561316E-013
   6.4066666666666661E-005     3.7256169141137608E-013
   6.4266666666666666E-005     2.9576583422870589E-013
   6.4466666666666657E-005     1.5981596080388939E-013
   6.4666666666666662E-005     3.0376647520164654E-015
   6.4866666666666667E-005    -1.2752084345921209E-013
   6.5066666666666658E-005    -1.8689468977549940E-013
   6.5266666666666663E-005    -1.4390580307315123E-013
   6.5466666666666654E-005     8.8318861743000287E-015
   6.5666666666666659E-005     2.4915719386108234E-013
   6.5866666666666664E-005     5.2578513937160725E-013
   6.6066666666666655E-005     7.6570519635203195E-013
   6.6266666666666660E-005     8.8789284577581540E-013
   6.6466666666666665E-005     8.2117037908402266E-013
   6.6666666666666656E-005     5.2282934972977309E-013
   6.6866666666666661E-005    -6.0132941993654635E-015
   6.7066666666666666E-005    -7.1219608962135870E-013
   6.7266666666666657E-005    -1.4922841069991570E-012
   6.7466666666666662E-005    -2.2054122162504745E-012
   6.7666666666666667E-005    -2.6960549674349511E-012
   6.7866666666666658E-005    -2.8233088323733007E-012
   6.8066666666666663E-005    -2.4914526292467652E-012
   6.8266666666666655E-005    -1.6756195154193367E-012
   6.8466666666666659E-005    -4.3667581375956617E-013
   6.8666666666666664E-005     1.0790550189852860E-012
   6.8866666666666656E-005     2.6569450672431884E-012
   6.9066666666666660E-005     4.0465129875084354E-012
   6.9266666666666665E-005     5.0042474468842279E-012
   6.9466666666666657E-005     5.3392060083556429E-012
   6.9666666666666661E-005     4.9524340559653447E-012
   6.9866666666666666E-005     3.8616254616815284E-012
   7.0066666666666658E-005     2.2046743529926250E-012
   7.0266666666666662E-005     2.1958749718545480E-013
   7.0466666666666654E-005    -1.7970394305480715E-012
   7.0666666666666659E-005    -3.5460045404342591E-012
   7.0866666666666664E-005    -4.7851943463391347E-012
   7.1066666666666655E-005    -5.3803828001007930E-012
   7.1266666666666660E-005    -5.3351960799986842E-012
   7.1466666666666665E-005    -4.7916373688420229E-012
   7.1666666666666656E-005    -3.9981348801217118E-012
   7.1866666666666661E-005    -3.2489767297555973E-012
   7.2066666666666666E-005    -2.8058458657180822E-012
   7.2266666666666657E-005    -2.8175678153272807E-012
   7.2466666666666662E-005    -3.2567091992483446E-012
   7.2666666666666667E-005    -3.8905184527460791E-012
   7.2866666666666658E-005    -4.2986096699820391E-012
   7.3066666666666663E-005    -3.9413881873618336E-012
   7.3266666666666654E-005    -2.2727726166336664E-012
   7.3466666666666659E-005     1.1196867086331146E-012
   7.3666666666666664E-005     6.3726760517683991E-012
   7.3866666666666655E-005     1.3232721328378318E-011
   7.4066666666666660E-005     2.0998326201498065E-011
   7.4266666666666665E-005     2.8540612713996297E-011
   7.4466666666666656E-005     3.4412451319384232E-011
   7.4666666666666661E-005     3.7040697088606518E-011
   7.4866666666666666E-005     3.4979890095036777E-011
   7.5066666666666657E-005     2.7191737401988238E-011
   7.5266666666666662E-005     1.3305536813307884E-011
   7.5466666666666653E-005    -6.1873054114962082E-012