  -3.3333333333333335E-005     0.0000000000000000     
  -3.3133333333333337E-005     0.0000000000000000     
  -3.2933333333333332E-005     0.0000000000000000     
  -3.2733333333333334E-005     0.0000000000000000     
  -3.2533333333333336E-005     0.0000000000000000     
  -3.2333333333333338E-005     0.0000000000000000     
  -3.2133333333333333E-005     0.0000000000000000     
  -3.1933333333333335E-005     0.0000000000000000     
  -3.1733333333333337E-005     0.0000000000000000     
  -3.1533333333333332E-005     0.0000000000000000     
  -3.1333333333333334E-005     0.0000000000000000     
  -3.1133333333333336E-005     0.0000000000000000     
  -3.0933333333333338E-005     0.0000000000000000     
  -3.0733333333333333E-005    -2.8173342598385517E-040
  -3.0533333333333335E-005    -2.5617088307050315E-039
  -3.0333333333333337E-005     1.1315819099559537E-038
  -3.0133333333333335E-005     2.1080485213705552E-037
  -2.9933333333333334E-005     9.5163846482590913E-037
  -2.9733333333333336E-005    -2.4969959225092991E-037
  -2.9533333333333334E-005    -2.4401408200794355E-035
  -2.9333333333333336E-005    -1.4204710700225458E-034
  -2.9133333333333334E-005    -4.1841276547836933E-034
  -2.8933333333333336E-005    -3.2724530661390414E-034
  -2.8733333333333335E-005     3.2414115104461340E-033
  -2.8533333333333333E-005     1.9161300447700511E-032
  -2.8333333333333335E-005     5.9071234087166990E-032
  -2.8133333333333337E-005     1.0217971921770175E-031
  -2.7933333333333336E-005    -2.0236416723507978E-032
  -2.7733333333333334E-005    -8.3795864587376966E-031
  -2.7533333333333336E-005    -3.3443409693082646E-030
  -2.7333333333333335E-005    -8.1783891607444823E-030
  -2.7133333333333333E-005    -1.2181339727681921E-029
  -2.6933333333333335E-005    -4.8978822788605999E-031
  -2.6733333333333337E-005     6.4136749984558803E-029
  -2.6533333333333336E-005     2.4128013377644920E-028
  -2.6333333333333334E-005     5.6619969495047711E-028
  -2.6133333333333336E-005     8.9744456493118303E-028
  -2.5933333333333335E-005     6.1383896845357575E-028
  -2.5733333333333333E-005    -1.7564462268466724E-027
  -2.5533333333333335E-005    -8.5614478952978684E-027
  -2.5333333333333337E-005    -2.1754788275307256E-026
  -2.5133333333333336E-005    -3.8911031495137370E-026
  -2.4933333333333334E-005    -4.5504149471480922E-026
  -2.4733333333333336E-005    -5.0379457828979764E-027
  -2.4533333333333334E-005     1.4517888856446986E-025
  -2.4333333333333333E-005     4.7521604891039432E-025
  -2.4133333333333335E-005     9.9471691710426303E-025
  -2.3933333333333337E-005     1.5141663150768761E-024
  -2.3733333333333335E-005     1.4484695119054310E-024
  -2.3533333333333334E-005    -3.3896929630305187E-025
  -2.3333333333333336E-005    -5.4187533585016946E-024
  -2.3133333333333338E-005    -1.5035532208912277E-023
  -2.2933333333333336E-005    -2.8325421573612151E-023
  -2.2733333333333335E-005    -3.9451733084327184E-023
  -2.2533333333333337E-005    -3.4475610981604812E-023
  -2.2333333333333335E-005     9.7248019637273646E-024
  -2.2133333333333334E-005     1.2041814544619077E-022
  -2.1933333333333336E-005     3.1286791079567788E-022
  -2.1733333333333338E-005     5.5985162047411594E-022
  -2.1533333333333336E-005     7.5040622377103297E-022
  -2.1333333333333335E-005     6.5448138166755239E-022
  -2.1133333333333337E-005    -7.1988791303452125E-023
  -2.0933333333333335E-005    -1.7917395921031667E-021
  -2.0733333333333334E-005    -4.6519511056322762E-021
  -2.0533333333333336E-005    -8.1995931580587235E-021
  -2.0333333333333337E-005    -1.0924401274203928E-020
  -2.0133333333333336E-005    -9.9498829372337489E-021
  -1.9933333333333334E-005    -1.2529856862179852E-021
  -1.9733333333333336E-005     1.9113726586391774E-020
  -1.9533333333333335E-005     5.2430788726638381E-020
  -1.9333333333333333E-005     9.3440251593745297E-020
  -1.9133333333333335E-005     1.2617104856991333E-019
  -1.8933333333333337E-005     1.2166595062293274E-019
  -1.8733333333333336E-005     4.0988525314954174E-020
  -1.8533333333333334E-005    -1.5274093324161591E-019
  -1.8333333333333336E-005    -4.7097197283510310E-019
  -1.8133333333333335E-005    -8.6688563053408292E-019
  -1.7933333333333337E-005    -1.2021353403599941E-018
  -1.7733333333333335E-005    -1.2311823859094754E-018
  -1.7533333333333337E-005    -6.2874597772481603E-019
  -1.7333333333333336E-005     9.1348062199051415E-019
  -1.7133333333333334E-005     3.5074307550983906E-018
  -1.6933333333333336E-005     6.8243837429490028E-018
  -1.6733333333333335E-005     9.8531515400707512E-018
  -1.6533333333333337E-005     1.0786304114899825E-017
  -1.6333333333333335E-005     7.2047931304816173E-018
  -1.6133333333333337E-005    -3.2708552743931499E-018
  -1.5933333333333336E-005    -2.1781227056595165E-017
  -1.5733333333333334E-005    -4.6596343058227523E-017
  -1.5533333333333336E-005    -7.1469120552534045E-017
  -1.5333333333333334E-005    -8.4737137066349215E-017
  -1.5133333333333336E-005    -7.0198009005215239E-017
  -1.4933333333333335E-005    -1.0778194756459044E-017
  -1.4733333333333337E-005     1.0445707545941744E-016
  -1.4533333333333335E-005     2.7047911940306113E-016
  -1.4333333333333337E-005     4.5582092335477084E-016
  -1.4133333333333336E-005     5.9551356016443385E-016
  -1.3933333333333334E-005     5.9301162157311925E-016
  -1.3733333333333336E-005     3.3691406000828052E-016
  -1.3533333333333335E-005    -2.6376222320788528E-016
  -1.3333333333333337E-005    -1.2270152652517244E-015
  -1.3133333333333335E-005    -2.4371788591539223E-015
  -1.2933333333333337E-005    -3.5948479077402669E-015
  -1.2733333333333336E-005    -4.2045066524762383E-015
  -1.2533333333333338E-005    -3.6301442988459520E-015
  -1.2333333333333336E-005    -1.2426059702974517E-015
  -1.2133333333333335E-005     3.3373300882590701E-015
  -1.1933333333333337E-005     9.9297758648706901E-015
  -1.1733333333333335E-005     1.7493154651181999E-014
  -1.1533333333333337E-005     2.3943221473753658E-014
  -1.1333333333333336E-005     2.6234064337480848E-014
  -1.1133333333333337E-005     2.0831182393438905E-014
  -1.0933333333333336E-005     4.6440625610785751E-015
  -1.0733333333333334E-005    -2.3636181687861252E-014
  -1.0533333333333336E-005    -6.2019585847485933E-014
  -1.0333333333333335E-005    -1.0393346458775257E-013
  -1.0133333333333337E-005    -1.3773349084732820E-013
  -9.9333333333333354E-006    -1.4761037029996883E-013
  -9.7333333333333373E-006    -1.1635303685712026E-013
  -9.5333333333333358E-006    -3.0066379792707612E-014
  -9.3333333333333343E-006     1.1563700237784662E-013
  -9.1333333333333362E-006     3.0916411792833078E-013
  -8.9333333333333348E-006     5.1806451706762025E-013
  -8.7333333333333367E-006     6.8804941114312062E-013
  -8.5333333333333352E-006     7.4811966409774858E-013
  -8.3333333333333371E-006     6.2320861778903932E-013
  -8.1333333333333356E-006     2.5414211020707470E-013
  -7.9333333333333376E-006    -3.7754258042962616E-013
  -7.7333333333333361E-006    -1.2249105633140715E-012
  -7.5333333333333346E-006    -2.1582303218782850E-012
  -7.3333333333333365E-006    -2.9630252441644082E-012
  -7.1333333333333351E-006    -3.3608277353428380E-012
  -6.9333333333333370E-006    -3.0565401683391377E-012
  -6.7333333333333355E-006    -1.8105221208817996E-012
  -6.5333333333333374E-006     4.7401980501225682E-013
  -6.3333333333333359E-006     3.6656352531001479E-012
  -6.1333333333333379E-006     7.3446591364978164E-012
  -5.9333333333333364E-006     1.0794225663038962E-011
  -5.7333333333333349E-006     1.3063903690512721E-011
  -5.5333333333333368E-006     1.3116591300635190E-011
  -5.3333333333333354E-006     1.0051680065579975E-011
  -5.1333333333333373E-006     3.3757400505896008E-012
  -4.9333333333333358E-006    -6.7297730231560113E-012
  -4.7333333333333377E-006    -1.9210272602566124E-011
  -4.5333333333333362E-006    -3.2080233700229862E-011
  -4.3333333333333348E-006    -4.2565186513752018E-011
  -4.1333333333333367E-006    -4.7473163915302770E-011
  -3.9333333333333352E-006    -4.3779816690030190E-011
  -3.7333333333333371E-006    -2.9356669375397386E-011
  -3.5333333333333356E-006    -3.7188076679240081E-012
  -3.3333333333333376E-006     3.1370228394428745E-011
  -3.1333333333333361E-006     7.1609664665991505E-011
  -2.9333333333333346E-006     1.1033647401773050E-010
  -2.7333333333333365E-006     1.3924648832045292E-010
  -2.5333333333333384E-006     1.4964515142520490E-010
  -2.3333333333333336E-006     1.3409410728719819E-010
  -2.1333333333333355E-006     8.8206364299963614E-011
  -1.9333333333333374E-006     1.2259615896066064E-011
  -1.7333333333333393E-006    -8.7732566808597055E-011
  -1.5333333333333345E-006    -1.9981099394384919E-010
  -1.3333333333333364E-006    -3.0692876002929926E-010
  -1.1333333333333383E-006    -3.8890992550946119E-010
  -9.3333333333333343E-007    -4.2533691514708410E-010
  -7.3333333333333535E-007    -3.9899715370925089E-010
  -5.3333333333333726E-007    -2.9937028056650517E-010
  -3.3333333333333918E-007    -1.2557284418287710E-010
  -1.3333333333333432E-007     1.1178354527191495E-010
   6.6666666666663770E-008     3.9022456898245438E-010
   2.6666666666666185E-007     6.7672293446614535E-010
   4.6666666666666672E-007     9.3062381264396553E-010
   6.6666666666666480E-007     1.1078954853878974E-009
   8.6666666666666289E-007     1.1662527141283774E-009
   1.0666666666666610E-006     1.0706333452760274E-009
   1.2666666666666658E-006     7.9853511588285883E-010
   1.4666666666666639E-006     3.4481143449635894E-010
   1.6666666666666620E-006    -2.7438121206330148E-010
   1.8666666666666669E-006    -1.0187464413650282E-009
   2.0666666666666649E-006    -1.8224498974566730E-009
   2.2666666666666630E-006    -2.5946600637783886E-009
   2.4666666666666611E-006    -3.2227714700120576E-009
   2.6666666666666660E-006    -3.5792572823994233E-009
   2.8666666666666641E-006    -3.5331222466923063E-009
   3.0666666666666622E-006    -2.9666052022518405E-009
   3.2666666666666602E-006    -1.7970067429403617E-009
   3.4666666666666651E-006    -2.2578501405240146E-012
   3.6666666666666632E-006     2.3527780709169166E-009
   3.8666666666666613E-006     5.0940092623266435E-009
   4.0666666666666661E-006     7.9259729263855517E-009
   4.2666666666666642E-006     1.0436587260014627E-008
   4.4666666666666623E-006     1.2124829785418500E-008
   4.6666666666666604E-006     1.2455023666616440E-008
   4.8666666666666652E-006     1.0937310368976649E-008
   5.0666666666666633E-006     7.2283855046795898E-009
   5.2666666666666614E-006     1.2403522814071773E-009
   5.4666666666666663E-006    -6.7602631218750222E-009
   5.6666666666666644E-006    -1.6085350457655833E-008
   5.8666666666666624E-006    -2.5612727869148274E-008
   6.0666666666666605E-006    -3.3847773075020772E-008
   6.2666666666666654E-006    -3.9070246097843407E-008
   6.4666666666666635E-006    -3.9564536411120009E-008
   6.6666666666666616E-006    -3.3915385633720468E-008
   6.8666666666666664E-006    -2.1333941713694823E-008
   7.0666666666666645E-006    -1.9639379801520828E-009
   7.2666666666666626E-006     2.2891857992267567E-008
   7.4666666666666607E-006     5.0685727625054209E-008
   7.6666666666666655E-006     7.7730489771368985E-008
   7.8666666666666636E-006     9.9525538990665362E-008
   8.0666666666666617E-006     1.1130065820611652E-007
   8.2666666666666598E-006     1.0873593861756337E-007
   8.4666666666666647E-006     8.8775826062800509E-008
   8.6666666666666627E-006     5.0420988952071619E-008
   8.8666666666666608E-006    -4.6402916304131423E-009
   9.0666666666666657E-006    -7.1701458486040007E-008
   9.2666666666666638E-006    -1.4312680840964753E-007
   9.4666666666666619E-006    -2.0893315147694962E-007
   9.6666666666666599E-006    -2.5786956972910096E-007
   9.8666666666666648E-006    -2.7891927499236996E-007
   1.0066666666666663E-005    -2.6306413146902081E-007
   1.0266666666666661E-005    -2.0507934459130458E-007
   1.0466666666666666E-005    -1.0507839812478299E-007
   1.0666666666666664E-005     3.0481272916186690E-008
   1.0866666666666662E-005     1.8858661023543133E-007
   1.1066666666666660E-005     3.5042381378714015E-007
   1.1266666666666665E-005     4.9314896954470599E-007
   1.1466666666666663E-005     5.9257361735895283E-007
   1.1666666666666661E-005     6.2650664525789117E-007
   1.1866666666666666E-005     5.7835214137237927E-007
   1.2066666666666664E-005     4.4046418946787725E-007
   1.2266666666666662E-005     2.1672037133317625E-007
   1.2466666666666660E-005    -7.6182560691843389E-008
   1.2666666666666665E-005    -4.0908944146277142E-007
   1.2866666666666663E-005    -7.4258802330478412E-007
   1.3066666666666661E-005    -1.0309912439476468E-006
   1.3266666666666666E-005    -1.2277738949535351E-006
   1.3466666666666664E-005    -1.2918855104945703E-006
   1.3666666666666662E-005    -1.1941667438608842E-006
   1.3866666666666660E-005    -9.2298667031067096E-007
   1.4066666666666665E-005    -4.8822795182177940E-007
   1.4266666666666663E-005     7.7127349573963999E-008
   1.4466666666666661E-005     7.1830593244456047E-007
   1.4666666666666666E-005     1.3631041622157903E-006
   1.4866666666666664E-005     1.9290636645935310E-006
   1.5066666666666662E-005     2.3328269244120351E-006
   1.5266666666666661E-005     2.5006917769710253E-006
   1.5466666666666665E-005     2.3791337126645313E-006
   1.5666666666666663E-005     1.9439583921013202E-006
   1.5866666666666662E-005     1.2068040032526655E-006
   1.6066666666666660E-005     2.1792831620186857E-007
   1.6266666666666665E-005    -9.3541277739921737E-007
   1.6466666666666663E-005    -2.1352164391797539E-006
   1.6666666666666661E-005    -3.2432993418018784E-006
   1.6866666666666666E-005    -4.1153385308784164E-006
   1.7066666666666664E-005    -4.6170839781611856E-006
   1.7266666666666662E-005    -4.6410946453007927E-006
   1.7466666666666660E-005    -4.1221666954273638E-006
   1.7666666666666665E-005    -3.0496315806261210E-006
   1.7866666666666663E-005    -1.4748847653455197E-006
   1.8066666666666661E-005     4.8711673325214688E-007
   1.8266666666666666E-005     2.6631335957479148E-006
   1.8466666666666664E-005     4.8338279642656071E-006
   1.8666666666666662E-005     6.7522940342127627E-006
   1.8866666666666660E-005     8.1677002087695113E-006
   1.9066666666666665E-005     8.8521786429679528E-006
   1.9266666666666663E-005     8.6285912042837125E-006
   1.9466666666666661E-005     7.3964168122302265E-006
   1.9666666666666666E-005     5.1528812164828773E-006
   1.9866666666666664E-005     2.0065200853122808E-006
   2.0066666666666662E-005    -1.8192561744995895E-006
   2.0266666666666660E-005    -5.9943800261190334E-006
   2.0466666666666665E-005    -1.0102970440785008E-005
   2.0666666666666663E-005    -1.3676487852394423E-005
   2.0866666666666661E-005    -1.6237519561164207E-005
   2.1066666666666659E-005    -1.7351125079936656E-005
   2.1266666666666664E-005    -1.6679331614086689E-005
   2.1466666666666662E-005    -1.4033269207398364E-005
   2.1666666666666660E-005    -9.4167638222541671E-006
   2.1866666666666665E-005    -3.0551376438011865E-006
   2.2066666666666663E-005     4.5964574852608470E-006
   2.2266666666666661E-005     1.2869416949793927E-005
   2.2466666666666659E-005     2.0924877117675144E-005
   2.2666666666666664E-005     2.7823052129778190E-005
   2.2866666666666662E-005     3.2614823694168899E-005
   2.3066666666666660E-005     3.4448467304347446E-005
   2.3266666666666665E-005     3.2681408100416681E-005
   2.3466666666666663E-005     2.6984745812255789E-005
   2.3666666666666661E-005     1.7427141111402122E-005
   2.3866666666666660E-005     4.5252029173034586E-006
   2.4066666666666664E-005    -1.0750586821842872E-005
   2.4266666666666662E-005    -2.7021579196231681E-005
   2.4466666666666661E-005    -4.2600387944046284E-005
   2.4666666666666665E-005    -5.5640030021398700E-005
   2.4866666666666663E-005    -6.4322291573055574E-005
   2.5066666666666662E-005    -6.7068725586861701E-005
   2.5266666666666660E-005    -6.2752763840680416E-005
   2.5466666666666665E-005    -5.0888482553313163E-005
   2.5666666666666663E-005    -3.1771072824375976E-005
   2.5866666666666661E-005    -6.5465447289394607E-006
   2.6066666666666666E-005     2.2806336264649783E-005
   2.6266666666666664E-005     5.3590788856979854E-005
   2.6466666666666662E-005     8.2602288529867228E-005
   2.6666666666666660E-005     1.0642202706814658E-004
   2.6866666666666665E-005     1.2177031210410316E-004
   2.7066666666666663E-005     1.2588717660703356E-004
   2.7266666666666661E-005     1.1690056951333876E-004
   2.7466666666666666E-005     9.4139644241669074E-005
   2.7666666666666664E-005     5.8352047627141502E-005
   2.7866666666666662E-005     1.1790393097507379E-005
   2.8066666666666667E-005    -4.1856048247508921E-005
   2.8266666666666658E-005    -9.7694002375005930E-005
   2.8466666666666663E-005    -1.5001565826637932E-004
   2.8666666666666668E-005    -1.9281936543195455E-004
   2.8866666666666659E-005    -2.2041964643139021E-004
   2.9066666666666664E-005    -2.2809000596986671E-004
   2.9266666666666669E-005    -2.1267341914960999E-004
   2.9466666666666660E-005    -1.7309200055814187E-004
   2.9666666666666665E-005    -1.1069136726929175E-004
   2.9866666666666656E-005    -2.9366267188373345E-005
   3.0066666666666661E-005     6.4568285582044553E-005
   3.0266666666666666E-005     1.6277285492675043E-004
   3.0466666666666657E-005     2.5553255610674664E-004
   3.0666666666666662E-005     3.3261712378004275E-004
   3.0866666666666667E-005     3.8428514319935531E-004
   3.1066666666666658E-005     4.0234266023033203E-004
   3.1266666666666663E-005     3.8115354860131451E-004
   3.1466666666666668E-005     3.1849283505208664E-004
   3.1666666666666659E-005     2.1613974134421606E-004
   3.1866666666666664E-005     8.0124014441727349E-005
   3.2066666666666656E-005    -7.9434919116405474E-005
   3.2266666666666660E-005    -2.4892078259413188E-004
   3.2466666666666665E-005    -4.1222922935725228E-004
   3.2666666666666657E-005    -5.5213287452914104E-004
   3.2866666666666661E-005    -6.5190140885283568E-004
   3.3066666666666666E-005    -6.9703992098474137E-004
   3.3266666666666658E-005    -6.7698356520217091E-004
   3.3466666666666662E-005    -5.8657392712601773E-004
   3.3666666666666667E-005    -4.2714854442299196E-004
   3.3866666666666659E-005    -2.0709464375647175E-004
   3.4066666666666664E-005     5.8241226080815093E-005
   3.4266666666666668E-005     3.4734488192353320E-004
   3.4466666666666660E-005     6.3401996628068003E-004
   3.4666666666666665E-005     8.8949050035365602E-004
   3.4866666666666656E-005     1.0849758305627026E-003
   3.5066666666666661E-005     1.1945318135727966E-003
   3.5266666666666666E-005     1.1979063236584272E-003
   3.5466666666666657E-005     1.0831295918453316E-003
   3.5666666666666662E-005     8.4855977136643918E-004
   3.5866666666666667E-005     5.0412838255237146E-004
   3.6066666666666658E-005     7.1584390587965045E-005
   3.6266666666666663E-005    -4.1638778158915824E-004
   3.6466666666666668E-005    -9.1820313626441374E-004
   3.6666666666666659E-005    -1.3864807307059355E-003
   3.6866666666666664E-005    -1.7720270500251123E-003
   3.7066666666666669E-005    -2.0283972387941311E-003
   3.7266666666666660E-005    -2.1166560205720282E-003
   3.7466666666666665E-005    -2.0098989940831782E-003
   3.7666666666666656E-005    -1.6970777541124103E-003
   3.7866666666666661E-005    -1.1856956275623509E-003
   3.8066666666666666E-005    -5.0300683104615015E-004
   3.8266666666666657E-005     3.0454201084941586E-004
   3.8466666666666662E-005     1.1737443735580647E-003
   3.8666666666666667E-005     2.0288922778789126E-003
   3.8866666666666658E-005     2.7876338874750976E-003
   3.9066666666666663E-005     3.3680344338904255E-003
   3.9266666666666668E-005     3.6962919074142839E-003
   3.9466666666666659E-005     3.7144490048298794E-003
   3.9666666666666664E-005     3.3873808460660078E-003
   3.9866666666666655E-005     2.7083429854737467E-003
   4.0066666666666660E-005     1.7024292742237662E-003
   4.0266666666666665E-005     4.2742708962756619E-004
   4.0466666666666656E-005    -1.0282502611525476E-003
   4.0666666666666661E-005    -2.5506308603685914E-003
   4.0866666666666666E-005    -4.0080643998910079E-003
   4.1066666666666657E-005    -5.2614484199119214E-003
   4.1266666666666662E-005    -6.1760854099961729E-003
   4.1466666666666667E-005    -6.6342414771490242E-003
   4.1666666666666658E-005    -6.5473391186171440E-003
   4.1866666666666663E-005    -5.8666524251004132E-003
   4.2066666666666668E-005    -4.5914200825313296E-003
   4.2266666666666660E-005    -2.7734274761819760E-003
   4.2466666666666664E-005    -5.1734774887782697E-004
   4.2666666666666656E-005     2.0235508215024336E-003
   4.2866666666666661E-005     4.6563411012863504E-003
   4.3066666666666665E-005     7.1616269540268245E-003
   4.3266666666666657E-005     9.3101842933325345E-003
   4.3466666666666662E-005     1.0881884951470040E-002
   4.3666666666666666E-005     1.1685459597750893E-002
   4.3866666666666658E-005     1.1577447505548861E-002
   4.4066666666666663E-005     1.0478650971057522E-002
   4.4266666666666667E-005     8.3864836350227619E-003
   4.4466666666666659E-005     5.3818316843555212E-003
   4.4666666666666664E-005     1.6294252772731314E-003
   4.4866666666666655E-005    -2.6288170148746444E-003
   4.5066666666666660E-005    -7.0874473311717838E-003
   4.5266666666666665E-005    -1.1397540011296298E-002
   4.5466666666666656E-005    -1.5191936010390393E-002
   4.5666666666666661E-005    -1.8113972345018936E-002
   4.5866666666666666E-005    -1.9847583816387016E-002
   4.6066666666666657E-005    -2.0146377298549369E-002
   4.6266666666666662E-005    -1.8859235343738394E-002
   4.6466666666666667E-005    -1.5950092858041512E-002
   4.6666666666666658E-005    -1.1509878917875308E-002
   4.6866666666666663E-005    -5.7590914183509815E-003
   4.7066666666666668E-005     9.5984608821097182E-004
   4.7266666666666659E-005     8.2005311376064493E-003
   4.7466666666666664E-005     1.5440099798116107E-002
   4.7666666666666655E-005     2.2114753149740349E-002
   4.7866666666666660E-005     2.7661006868198907E-002
   4.8066666666666665E-005     3.1559759373030974E-002
   4.8266666666666656E-005     3.3379898362687496E-002
   4.8466666666666661E-005     3.2817978239337492E-002
   4.8666666666666666E-005     2.9730614112142284E-002
   4.8866666666666657E-005     2.4156603102872702E-002
   4.9066666666666662E-005     1.6326433542088504E-002
   4.9266666666666667E-005     6.6576783623583866E-003
   4.9466666666666658E-005    -4.2642278705565789E-003
   4.9666666666666663E-005    -1.5719195665795833E-002
   4.9866666666666655E-005    -2.6897950669282349E-002
   5.0066666666666659E-005    -3.6956992883975630E-002
   5.0266666666666664E-005    -4.5079405504720005E-002
   5.0466666666666656E-005    -5.0537236690138619E-002
   5.0666666666666660E-005    -5.2750815593608731E-002
   5.0866666666666665E-005    -5.1340422310097153E-002
   5.1066666666666657E-005    -4.6165993490795226E-002
   5.1266666666666661E-005    -3.7351329403986354E-002
   5.1466666666666666E-005    -2.5290210816923502E-002
   5.1666666666666658E-005    -1.0633053894735232E-002
   5.1866666666666662E-005     5.7458419681675754E-003
   5.2066666666666667E-005     2.2798964033092610E-002
   5.2266666666666659E-005     3.9371350508002070E-002
   5.2466666666666664E-005     5.4277308393243837E-002
   5.2666666666666655E-005     6.6383017293299179E-002
   5.2866666666666660E-005     7.4689346128026510E-002
   5.3066666666666665E-005     7.8408894996495643E-002
   5.3266666666666656E-005     7.7031478007924828E-002
   5.3466666666666661E-005     7.0372947527224838E-002
   5.3666666666666666E-005     5.8603142380580661E-002
   5.3866666666666657E-005     4.2250234585631777E-002
   5.4066666666666662E-005     2.2180211574777293E-002
   5.4266666666666667E-005    -4.4798290610820711E-004
   5.4466666666666658E-005    -2.4249354916601903E-002
   5.4666666666666663E-005    -4.7697948901558540E-002
   5.4866666666666668E-005    -6.9224798706009200E-002
   5.5066666666666659E-005    -8.7322369429190472E-002
   5.5266666666666664E-005   -0.10064848230624278     
   5.5466666666666655E-005   -0.10812251686384286     
   5.5666666666666660E-005   -0.10900710642043630     
   5.5866666666666665E-005   -0.10296919236271523     
   5.6066666666666656E-005    -9.0115871392353997E-002
   5.6266666666666661E-005    -7.1001718354822815E-002
   5.6466666666666666E-005    -4.6606509325526853E-002
   5.6666666666666657E-005    -1.8284028784475614E-002
   5.6866666666666662E-005     1.2315238032653029E-002
   5.7066666666666667E-005     4.3342953120774616E-002
   5.7266666666666658E-005     7.2867157146065162E-002
   5.7466666666666663E-005     9.8994582256032693E-002
   5.7666666666666654E-005    0.11999310391439252     
   5.7866666666666659E-005    0.13440624686212355     
   5.8066666666666664E-005    0.14115209557478287     
   5.8266666666666655E-005    0.13959980262702679     
   5.8466666666666660E-005    0.12961852173399488     
   5.8666666666666665E-005    0.11159509805343069     
   5.8866666666666656E-005     8.6419090871653129E-002
   5.9066666666666661E-005     5.5435715274254699E-002
   5.9266666666666666E-005     2.0369437278215868E-002
   5.9466666666666657E-005    -1.6777133748734321E-002
   5.9666666666666662E-005    -5.3842756144691292E-002
   5.9866666666666667E-005    -8.8638034460473816E-002
   6.0066666666666659E-005   -0.11907861205182937     
   6.0266666666666663E-005   -0.14331273177234774     
   6.0466666666666655E-005   -0.15983514171252025     
   6.0666666666666660E-005   -0.16758016822276869     
   6.0866666666666664E-005   -0.16598822793190388     
   6.1066666666666656E-005   -0.15504162880524019     
   6.1266666666666661E-005   -0.13526745795438239     
   6.1466666666666665E-005   -0.10770761453068907     
   6.1666666666666657E-005    -7.3857870701871151E-002
   6.1866666666666662E-005    -3.5579839312248465E-002
   6.2066666666666666E-005     5.0084950697229930E-003
   6.2266666666666658E-005     4.5656960664889341E-002
   6.2466666666666663E-005     8.4114367233575141E-002
   6.2666666666666668E-005    0.11825869305068498     
   6.2866666666666659E-005    0.14621844729291034     
   6.3066666666666664E-005    0.16647794526588222     
   6.3266666666666655E-005    0.17796053394051181     
   6.3466666666666660E-005    0.18008504002718179     
   6.3666666666666665E-005    0.17279248144500700     
   6.3866666666666656E-005    0.15654208812789078     
   6.4066666666666661E-005    0.13227736811686072     
   6.4266666666666666E-005    0.10136492782180359     
   6.4466666666666657E-005     6.5510190593086992E-002
   6.4666666666666662E-005     2.6655557960010959E-002
   6.4866666666666667E-005    -1.3132568237898063E-002
   6.5066666666666658E-005    -5.1780981423796960E-002
   6.5266666666666663E-005    -8.7324141450555892E-002
   6.5466666666666654E-005   -0.11800928754937307     
   6.5666666666666659E-005   -0.14238644046064663     
   6.5866666666666664E-005   -0.15937848991679698     
   6.6066666666666655E-005   -0.16832791874102598     
   6.6266666666666660E-005   -0.16901841769388345     
   6.6466666666666665E-005   -0.16167089740264190     
   6.6666666666666656E-005   -0.14691505905384850     
   6.6866666666666661E-005   -0.12573921123474871     
   6.7066666666666666E-005    -9.9421866063532344E-002
   6.7266666666666657E-005    -6.9449899139216953E-002
   6.7466666666666662E-005    -3.7428477343248397E-002
   6.7666666666666667E-005    -4.9883116032030765E-003
   6.7866666666666658E-005     2.6304319739569221E-002
   6.8066666666666663E-005     5.5029588988258743E-002
   6.8266666666666655E-005     7.9983758432991228E-002
   6.8466666666666659E-005    0.10023290159715156     
   6.8666666666666664E-005    0.11514814532441446     
   6.8866666666666656E-005    0.12442104489286750     
   6.9066666666666660E-005    0.12805925774895835     
   6.9266666666666665E-005    0.12636335817000366     
   6.9466666666666657E-005    0.11988723456160509     
   6.9666666666666661E-005    0.10938512793423087     
   6.9866666666666666E-005     9.5749315912363922E-002
   7.0066666666666658E-005     7.9942807389283596E-002
   7.0266666666666662E-005     6.2931653274655955E-002
   7.0466666666666654E-005     4.5621377301575450E-002
   7.0666666666666659E-005     2.8801654752953175E-002
   7.0866666666666664E-005     1.3102640646012876E-002
   7.1066666666666655E-005    -1.0343787286205986E-003
   7.1266666666666660E-005    -1.3370499573009838E-002
   7.1466666666666665E-005    -2.3866449630821358E-002
   7.1666666666666656E-005    -3.2664202936509915E-002
   7.1866666666666661E-005    -4.0054753699908914E-002
   7.2066666666666666E-005    -4.6434767422905573E-002
   7.2266666666666657E-005    -5.2255478582700056E-002
   7.2466666666666662E-005    -5.7967826250269201E-002
   7.2666666666666667E-005    -6.3967902506198077E-002
   7.2866666666666658E-005    -7.0546892711465498E-002
   7.3066666666666663E-005    -7.7849118556504310E-002
   7.3266666666666654E-005    -8.5841419146346409E-002
   7.3466666666666659E-005    -9.4296248300496321E-002
   7.3666666666666664E-005   -0.10278984962728815     
   7.3866666666666655E-005   -0.11071603683895929     
   7.4066666666666660E-005   -0.11731497907733371     
   7.4266666666666665E-005   -0.12171548313274115     
   7.4466666666666656E-005   -0.12298843937259156     
   7.4666666666666661E-005   -0.12020836399686202     
   7.4866666666666666E-005   -0.11251961011160888     
   7.5066666666666657E-005    -9.9203366797195436E-002
   7.5266666666666662E-005    -7.9741708384366478E-002
   7.5466666666666653E-005    -5.3875001115901017E-002