  -3.3333333333333335E-005     0.0000000000000000     
  -3.3133333333333337E-005     0.0000000000000000     
  -3.2933333333333332E-005     0.0000000000000000     
  -3.2733333333333334E-005     0.0000000000000000     
  -3.2533333333333336E-005     0.0000000000000000     
  -3.2333333333333338E-005     0.0000000000000000     
  -3.2133333333333333E-005     0.0000000000000000     
  -3.1933333333333335E-005     0.0000000000000000     
  -3.1733333333333337E-005     0.0000000000000000     
  -3.1533333333333332E-005     0.0000000000000000     
  -3.1333333333333334E-005     7.3358817512987940E-031
  -3.1133333333333336E-005    -2.4724749251208132E-030
  -3.0933333333333338E-005     2.6579685491909372E-029
  -3.0733333333333333E-005     2.1873892538505443E-027
  -3.0533333333333335E-005     3.1200006520373702E-026
  -3.0333333333333337E-005     2.5753044323103317E-025
  -3.0133333333333335E-005     1.5164810311531030E-024
  -2.9933333333333334E-005     6.9439486649747142E-024
  -2.9733333333333336E-005     2.5805484942731444E-023
  -2.9533333333333334E-005     7.9298832356152452E-023
  -2.9333333333333336E-005     2.0078273241178986E-022
  -2.9133333333333334E-005     4.0131232611460155E-022
  -2.8933333333333336E-005     5.2596734414198682E-022
  -2.8733333333333335E-005    -1.4241282652441684E-022
  -2.8533333333333333E-005    -3.7318671147256436E-021
  -2.8333333333333335E-005    -1.5213844793188217E-020
  -2.8133333333333337E-005    -4.4128949690653073E-020
  -2.7933333333333336E-005    -1.0519235903960853E-019
  -2.7733333333333334E-005    -2.1419583682099603E-019
  -2.7533333333333336E-005    -3.7240288223133695E-019
  -2.7333333333333335E-005    -5.2935948296990581E-019
  -2.7133333333333333E-005    -5.1366213030476864E-019
  -2.6933333333333335E-005     7.0446979552070328E-020
  -2.6733333333333337E-005     1.9570322437088201E-018
  -2.6533333333333336E-005     6.2668775011500540E-018
  -2.6333333333333334E-005     1.4331873957726541E-017
  -2.6133333333333336E-005     2.7039586886630162E-017
  -2.5933333333333335E-005     4.3379643808361407E-017
  -2.5733333333333333E-005     5.7944562823142673E-017
  -2.5533333333333335E-005     5.7487721778099151E-017
  -2.5333333333333337E-005     1.7425705963752555E-017
  -2.5133333333333336E-005    -9.9538427449466974E-017
  -2.4933333333333334E-005    -3.3886887530224725E-016
  -2.4733333333333336E-005    -7.3855329281317141E-016
  -2.4533333333333334E-005    -1.2972083620639212E-015
  -2.4333333333333333E-005    -1.9238137449889876E-015
  -2.4133333333333335E-005    -2.3746604769581178E-015
  -2.3933333333333337E-005    -2.1962816834992607E-015
  -2.3733333333333335E-005    -7.1041251782034377E-016
  -2.3533333333333334E-005     2.9065482871747658E-015
  -2.3333333333333336E-005     9.3907628157452502E-015
  -2.3133333333333338E-005     1.8962423539114255E-014
  -2.2933333333333336E-005     3.0710823906696422E-014
  -2.2733333333333335E-005     4.1896008708128933E-014
  -2.2533333333333337E-005     4.7397416144877464E-014
  -2.2333333333333335E-005     3.9671201087574745E-014
  -2.2133333333333334E-005     9.6575125025606012E-015
  -2.1933333333333336E-005    -5.0966842391959674E-014
  -2.1733333333333338E-005    -1.4604003037415189E-013
  -2.1533333333333336E-005    -2.7000494362022341E-013
  -2.1333333333333335E-005    -4.0286239442944918E-013
  -2.1133333333333337E-005    -5.0677105974791293E-013
  -2.0933333333333335E-005    -5.2664670821325502E-013
  -2.0733333333333334E-005    -3.9715247022075842E-013
  -2.0533333333333336E-005    -5.7640582862037161E-014
  -2.0333333333333337E-005     5.2529420895231897E-013
  -2.0133333333333336E-005     1.3308661461809937E-012
  -1.9933333333333334E-005     2.2593089878801656E-012
  -1.9733333333333336E-005     3.1186278417924595E-012
  -1.9533333333333335E-005     3.6333155062443484E-012
  -1.9333333333333333E-005     3.4834086513263078E-012
  -1.9133333333333335E-005     2.3763221678748590E-012
  -1.8933333333333337E-005     1.4424945547158205E-013
  -1.8733333333333336E-005    -3.1518257235269851E-012
  -1.8533333333333334E-005    -7.1412277586463769E-012
  -1.8333333333333336E-005    -1.1121117899674597E-011
  -1.8133333333333335E-005    -1.4124050385290057E-011
  -1.7933333333333337E-005    -1.5091239922718727E-011
  -1.7733333333333335E-005    -1.3139388628560338E-011
  -1.7533333333333337E-005    -7.8734574244459723E-012
  -1.7333333333333336E-005     3.3644005762408549E-013
  -1.7133333333333334E-005     1.0216776270827319E-011
  -1.6933333333333336E-005     1.9689090021927191E-011
  -1.6733333333333335E-005     2.6264029494408916E-011
  -1.6533333333333337E-005     2.7715396462187827E-011
  -1.6333333333333335E-005     2.2919400012652683E-011
  -1.6133333333333337E-005     1.2643416550083045E-011
  -1.5933333333333336E-005    -2.0848236043628220E-015
  -1.5733333333333334E-005    -9.7401911823128790E-012
  -1.5533333333333336E-005    -1.0137103667705688E-011
  -1.5333333333333334E-005     4.5372776200437463E-012
  -1.5133333333333336E-005     3.6847719067909631E-011
  -1.4933333333333335E-005     8.3673278177015590E-011
  -1.4733333333333337E-005     1.3441214178362802E-010
  -1.4533333333333335E-005     1.7078822163278186E-010
  -1.4333333333333337E-005     1.6900332392900073E-010
  -1.4133333333333336E-005     1.0457161804145268E-010
  -1.3933333333333334E-005    -4.0482012167106714E-011
  -1.3733333333333336E-005    -2.6918747272684129E-010
  -1.3533333333333335E-005    -5.6186730804785133E-010
  -1.3333333333333337E-005    -8.7148812370561607E-010
  -1.3133333333333335E-005    -1.1246108822175733E-009
  -1.2933333333333337E-005    -1.2298146532598925E-009
  -1.2733333333333336E-005    -1.0941420541783427E-009
  -1.2533333333333338E-005    -6.4620122177153318E-010
  -1.2333333333333336E-005     1.3764967435246041E-010
  -1.2133333333333335E-005     1.2096044099223034E-009
  -1.1933333333333337E-005     2.4360138024956504E-009
  -1.1733333333333335E-005     3.5990232566270274E-009
  -1.1533333333333337E-005     4.4192029550337604E-009
  -1.1333333333333336E-005     4.6005663051012568E-009
  -1.1133333333333337E-005     3.8943858282095800E-009
  -1.0933333333333336E-005     2.1725583513843005E-009
  -1.0733333333333334E-005    -5.0389512631970958E-010
  -1.0533333333333336E-005    -3.8388944381785840E-009
  -1.0333333333333335E-005    -7.2957547018541924E-009
  -1.0133333333333337E-005    -1.0145845852357882E-008
  -9.9333333333333354E-006    -1.1576906042013512E-008
  -9.7333333333333373E-006    -1.0854329001778431E-008
  -9.5333333333333358E-006    -7.5147223324427439E-009
  -9.3333333333333343E-006    -1.5574711369625391E-009
  -9.1333333333333362E-006     6.4096382052639818E-009
  -8.9333333333333348E-006     1.5117429187373505E-008
  -8.7333333333333367E-006     2.2714817311305135E-008
  -8.5333333333333352E-006     2.7003374706726433E-008
  -8.3333333333333371E-006     2.5822120811353044E-008
  -8.1333333333333356E-006     1.7544247102229383E-008
  -7.9333333333333376E-006     1.6122325550068071E-009
  -7.7333333333333361E-006    -2.0990934559451489E-008
  -7.5333333333333346E-006    -4.7452600915614981E-008
  -7.3333333333333365E-006    -7.3136906038677422E-008
  -7.1333333333333351E-006    -9.1971376790082910E-008
  -6.9333333333333370E-006    -9.7245185675142200E-008
  -6.7333333333333355E-006    -8.2776369666909553E-008
  -6.5333333333333374E-006    -4.4321981972008267E-008
  -6.3333333333333359E-006     1.8975479196182452E-008
  -6.1333333333333379E-006     1.0337265192930231E-007
  -5.9333333333333364E-006     1.9983281015336038E-007
  -5.7333333333333349E-006     2.9412451480454038E-007
  -5.5333333333333368E-006     3.6789997358902233E-007
  -5.3333333333333354E-006     4.0081131941921261E-007
  -5.1333333333333373E-006     3.7355067125762074E-007
  -4.9333333333333358E-006     2.7151195184958052E-007
  -4.7333333333333377E-006     8.8595534881194195E-008
  -4.5333333333333362E-006    -1.6945657993989559E-007
  -4.3333333333333348E-006    -4.8286094581183752E-007
  -4.1333333333333367E-006    -8.1735253657698739E-007
  -3.9333333333333352E-006    -1.1259732911918158E-006
  -3.7333333333333371E-006    -1.3532972327672191E-006
  -3.5333333333333356E-006    -1.4419586492774932E-006
  -3.3333333333333376E-006    -1.3409627139877737E-006
  -3.1333333333333361E-006    -1.0148837178018504E-006
  -2.9333333333333346E-006    -4.5274824175912850E-007
  -2.7333333333333365E-006     3.2478254025652332E-007
  -2.5333333333333384E-006     1.2613132313649940E-006
  -2.3333333333333336E-006     2.2649020165703270E-006
  -2.1333333333333355E-006     3.2133234130783149E-006
  -1.9333333333333374E-006     3.9646234143083595E-006
  -1.7333333333333393E-006     4.3724826410651564E-006
  -1.5333333333333345E-006     4.3051452141847044E-006
  -1.3333333333333364E-006     3.6659809530688972E-006
  -1.1333333333333383E-006     2.4131997490729950E-006
  -9.3333333333333343E-007     5.7593996894206242E-007
  -7.3333333333333535E-007    -1.7360082295250574E-006
  -5.3333333333333726E-007    -4.3312032473507180E-006
  -3.3333333333333918E-007    -6.9458465993964866E-006
  -1.3333333333333432E-007    -9.2638708545586444E-006
   6.6666666666663770E-008    -1.0947004437068262E-005
   2.6666666666666185E-007    -1.1672595209454077E-005
   4.6666666666666672E-007    -1.1175675860632775E-005
   6.6666666666666480E-007    -9.2906701508167170E-006
   8.6666666666666289E-007    -5.9875752920400653E-006
   1.0666666666666610E-006    -1.3973414467464596E-006
   1.2666666666666658E-006     4.1781875446128857E-006
   1.4666666666666639E-006     1.0275165521751815E-005
   1.6666666666666620E-006     1.6297017162671993E-005
   1.8666666666666669E-006     2.1563384710749660E-005
   2.0666666666666649E-006     2.5375566856744439E-005
   2.2666666666666630E-006     2.7092882093266751E-005
   2.4666666666666611E-006     2.6212453675710269E-005
   2.6666666666666660E-006     2.2443548417417736E-005
   2.8666666666666641E-006     1.5767288210228280E-005
   3.0666666666666622E-006     6.4731805433183399E-006
   3.2666666666666602E-006    -4.8342601686205592E-006
   3.4666666666666651E-006    -1.7262780318653035E-005
   3.6666666666666632E-006    -2.9694036362872502E-005
   3.8666666666666613E-006    -4.0876192049130552E-005
   4.0666666666666661E-006    -4.9540200618372030E-005
   4.2666666666666642E-006    -5.4529208170117780E-005
   4.4666666666666623E-006    -5.4928122701051698E-005
   4.6666666666666604E-006    -5.0179416133032874E-005
   4.8666666666666652E-006    -4.0171690794384191E-005
   5.0666666666666633E-006    -2.5289649786173667E-005
   5.2666666666666614E-006    -6.4176401351134480E-006
   5.4666666666666663E-006     1.5106518527657283E-005
   5.6666666666666644E-006     3.7585493374696898E-005
   5.8666666666666624E-006     5.9097103979562333E-005
   6.0666666666666605E-006     7.7658044880145045E-005
   6.2666666666666654E-006     9.1401576996072193E-005
   6.4666666666666635E-006     9.8752322365613633E-005
   6.6666666666666616E-006     9.8581158901244590E-005
   6.8666666666666664E-006     9.0325063208878154E-005
   7.0666666666666645E-006     7.4060068516067080E-005
   7.2666666666666626E-006     5.0520107348874497E-005
   7.4666666666666607E-006     2.1059737948987930E-005
   7.6666666666666655E-006    -1.2435869549877485E-005
   7.8666666666666636E-006    -4.7685464232591985E-005
   8.0666666666666617E-006    -8.2178694657526053E-005
   8.2666666666666598E-006    -1.1336091633897090E-004
   8.4666666666666647E-006    -1.3882010335385770E-004
   8.6666666666666627E-006    -1.5646073386375522E-004
   8.8666666666666608E-006    -1.6465145346823516E-004
   9.0666666666666657E-006    -1.6233596039557115E-004
   9.2666666666666638E-006    -1.4910082657028264E-004
   9.4666666666666619E-006    -1.2519759614728696E-004
   9.6666666666666599E-006    -9.1520864340271290E-005
   9.8666666666666648E-006    -4.9547612127322793E-005
   1.0066666666666663E-005    -1.2461202603162330E-006
   1.0266666666666661E-005     5.1035234955811129E-005
   1.0466666666666666E-005     1.0468829135550431E-004
   1.0666666666666664E-005     1.5696355254599353E-004
   1.0866666666666662E-005     2.0507822959804156E-004
   1.1066666666666660E-005     2.4630790952329736E-004
   1.1266666666666665E-005     2.7805985935348013E-004
   1.1466666666666663E-005     2.9793089777738327E-004
   1.1666666666666661E-005     3.0375696473543631E-004
   1.1866666666666666E-005     2.9366525896933461E-004
   1.2066666666666664E-005     2.6614244730086852E-004
   1.2266666666666662E-005     2.2013190749218606E-004
   1.2466666666666660E-005     1.5517032977408054E-004
   1.2666666666666665E-005     7.1567649892157072E-005
   1.2866666666666663E-005    -2.9374337230052999E-005
   1.3066666666666661E-005    -1.4512191727904076E-004
   1.3266666666666666E-005    -2.7167583570985156E-004
   1.3466666666666664E-005    -4.0338571424440844E-004
   1.3666666666666662E-005    -5.3286132812813949E-004
   1.3866666666666660E-005    -6.5103419704727725E-004
   1.4066666666666665E-005    -7.4741868944406935E-004
   1.4266666666666663E-005    -8.1061129343022547E-004
   1.4466666666666661E-005    -8.2904417504395711E-004
   1.4666666666666666E-005    -7.9198200956400778E-004
   1.4866666666666664E-005    -6.9071486517062681E-004
   1.5066666666666662E-005    -5.1986396858995842E-004
   1.5266666666666661E-005    -2.7868100269162218E-004
   1.5466666666666665E-005     2.7805748449119029E-005
   1.5666666666666663E-005     3.8796026838940913E-004
   1.5866666666666662E-005     7.8318467188662850E-004
   1.6066666666666660E-005     1.1881813986487253E-003
   1.6266666666666665E-005     1.5719313010711992E-003
   1.6466666666666663E-005     1.8994249893219068E-003
   1.6666666666666661E-005     2.1341121088180310E-003
   1.6866666666666666E-005     2.2409448267691826E-003
   1.7066666666666664E-005     2.1898137548937565E-003
   1.7266666666666662E-005     1.9590960119913884E-003
   1.7466666666666660E-005     1.5389835364840064E-003
   1.7666666666666665E-005     9.3422998868455292E-004
   1.7866666666666663E-005     1.6596572613252467E-004
   1.8066666666666661E-005    -7.2772984904114640E-004
   1.8266666666666666E-005    -1.6927199676119603E-003
   1.8466666666666664E-005    -2.6612836901574776E-003
   1.8666666666666662E-005    -3.5561375173595658E-003
   1.8866666666666660E-005    -4.2958294143456482E-003
   1.9066666666666665E-005    -4.8011731505054490E-003
   1.9266666666666663E-005    -5.0022629471075117E-003
   1.9466666666666661E-005    -4.8454939477412693E-003
   1.9666666666666666E-005    -4.2999662408863210E-003
   1.9866666666666664E-005    -3.3626335003410467E-003
   2.0066666666666662E-005    -2.0616151886273062E-003
   2.0266666666666660E-005    -4.5719610477287483E-004
   2.0466666666666665E-005     1.3597956046716279E-003
   2.0666666666666663E-005     3.2723384771926405E-003
   2.0866666666666661E-005     5.1441708504901210E-003
   2.1066666666666659E-005     6.8289731797758465E-003
   2.1266666666666664E-005     8.1811991503455625E-003
   2.1466666666666662E-005     9.0677628563039826E-003
   2.1666666666666660E-005     9.3796728467017698E-003
   2.1866666666666665E-005     9.0426249289480287E-003
   2.2066666666666663E-005     8.0255981902010408E-003
   2.2266666666666661E-005     6.3465943988353021E-003
   2.2466666666666659E-005     4.0748468773807202E-003
   2.2666666666666664E-005     1.3290930048398095E-003
   2.2866666666666662E-005    -1.7281974068779802E-003
   2.3066666666666660E-005    -4.9004073908883415E-003
   2.3266666666666665E-005    -7.9696063620891787E-003
   2.3466666666666663E-005    -1.0711754235029229E-002
   2.3666666666666661E-005    -1.2913199756017037E-002
   2.3866666666666660E-005    -1.4387161227086161E-002
   2.4066666666666664E-005    -1.4988922463761743E-002
   2.4266666666666662E-005    -1.4628443775608072E-002
   2.4466666666666661E-005    -1.3279323791262586E-002
   2.4666666666666665E-005    -1.0983268319471998E-002
   2.4866666666666663E-005    -7.8495859338314784E-003
   2.5066666666666662E-005    -4.0496201998221591E-003
   2.5266666666666660E-005     1.9357745658412414E-004
   2.5466666666666665E-005     4.6196227837795763E-003
   2.5666666666666663E-005     8.9481957952221979E-003
   2.5866666666666661E-005     1.2898177069096708E-002
   2.6066666666666666E-005     1.6207072322145639E-002
   2.6266666666666664E-005     1.8649297196253987E-002
   2.6466666666666662E-005     2.0051917598354382E-002
   2.6666666666666660E-005     2.0306684059914447E-002
   2.6866666666666665E-005     1.9377485632283652E-002
   2.7066666666666663E-005     1.7302696363519998E-002
   2.7266666666666661E-005     1.4192278528555383E-002
   2.7466666666666666E-005     1.0219967940007875E-002
   2.7666666666666664E-005     5.6111324650429629E-003
   2.7866666666666662E-005     6.2734915745449836E-004
   2.8066666666666667E-005    -4.4511518152662993E-003
   2.8266666666666658E-005    -9.3437859009062561E-003
   2.8466666666666663E-005    -1.3787296268823112E-002
   2.8666666666666668E-005    -1.7551526977506469E-002
   2.8866666666666659E-005    -2.0452187625081889E-002
   2.9066666666666664E-005    -2.2359779980357066E-002
   2.9266666666666669E-005    -2.3204154977436921E-002
   2.9466666666666660E-005    -2.2974653691117616E-002
   2.9666666666666665E-005    -2.1716022334369839E-002
   2.9866666666666656E-005    -1.9520748166938582E-002
   3.0066666666666661E-005    -1.6518729423267590E-002
   3.0266666666666666E-005    -1.2865353126905421E-002
   3.0466666666666657E-005    -8.7292431421557657E-003
   3.0666666666666662E-005    -4.2808106784788654E-003
   3.0866666666666667E-005     3.1727008195881444E-004
   3.1066666666666658E-005     4.9169354121656903E-003
   3.1266666666666663E-005     9.3884024594008825E-003
   3.1466666666666668E-005     1.3620594737111358E-002
   3.1666666666666659E-005     1.7518614591469150E-002
   3.1866666666666664E-005     2.0998948888133605E-002
   3.2066666666666656E-005     2.3983369754238794E-002
   3.2266666666666660E-005     2.6392728659108463E-002
   3.2466666666666665E-005     2.8141849612972808E-002
   3.2666666666666657E-005     2.9136683774457005E-002
   3.2866666666666661E-005     2.9274633267113659E-002
   3.3066666666666666E-005     2.8448603505357616E-002
   3.3266666666666658E-005     2.6554888971463655E-002
   3.3466666666666662E-005     2.3504561504814701E-002
   3.3666666666666667E-005     1.9237471880554975E-002
   3.3866666666666659E-005     1.3737562006637234E-002
   3.4066666666666664E-005     7.0479976636415916E-003
   3.4266666666666668E-005    -7.1575374574811904E-004
   3.4466666666666660E-005    -9.3565629611448778E-003
   3.4666666666666665E-005    -1.8591557572481255E-002
   3.4866666666666656E-005    -2.8054613023575311E-002
   3.5066666666666661E-005    -3.7306010645731323E-002
   3.5266666666666666E-005    -4.5849493462994252E-002
   3.5466666666666657E-005    -5.3156176319744619E-002
   3.5666666666666662E-005    -5.8694208075290022E-002
   3.5866666666666667E-005    -6.1962448072582908E-002
   3.6066666666666658E-005    -6.2526138635050660E-002
   3.6266666666666663E-005    -6.0052072428119517E-002
   3.6466666666666668E-005    -5.4340744616137859E-002
   3.6666666666666659E-005    -4.5353039004614709E-002
   3.6866666666666664E-005    -3.3229192743019748E-002
   3.7066666666666669E-005    -1.8298259371708099E-002
   3.7266666666666660E-005    -1.0767249602491313E-003
   3.7466666666666665E-005     1.7744288087450603E-002
   3.7666666666666656E-005     3.7323295075321103E-002
   3.7866666666666661E-005     5.6703369830513467E-002
   3.8066666666666666E-005     7.4856370733064698E-002
   3.8266666666666657E-005     9.0734394472506558E-002
   3.8466666666666662E-005    0.10332602868978419     
   3.8666666666666667E-005    0.11171444849734019     
   3.8866666666666658E-005    0.11513420980543049     
   3.9066666666666663E-005    0.11302363727779123     
   3.9266666666666668E-005    0.10506967549619711     
   3.9466666666666659E-005     9.1242263470194387E-002
   3.9666666666666664E-005     7.1815984829850313E-002
   3.9866666666666655E-005     4.7376959046072642E-002
   4.0066666666666660E-005     1.8813806839174968E-002
   4.0266666666666665E-005    -1.2707879379656353E-002
   4.0466666666666656E-005    -4.5787123642083469E-002
   4.0666666666666661E-005    -7.8844169487912188E-002
   4.0866666666666666E-005   -0.11019021793552748     
   4.1066666666666657E-005   -0.13810744109776593     
   4.1266666666666662E-005   -0.16093599094352279     
   4.1466666666666667E-005   -0.17716390081946873     
   4.1666666666666658E-005   -0.18551559057714345     
   4.1866666666666663E-005   -0.18503425996593686     
   4.2066666666666668E-005   -0.17515339151273451     
   4.2266666666666660E-005   -0.15575298943552207     
   4.2466666666666664E-005   -0.12719653971156936     
   4.2666666666666656E-005    -9.0345194562538964E-002
   4.2866666666666661E-005    -4.6547161144706015E-002
   4.3066666666666665E-005     2.3989987996105109E-003
   4.3266666666666657E-005     5.4306698062186277E-002
   4.3466666666666662E-005    0.10668754357878360     
   4.3666666666666666E-005    0.15685781844738245     
   4.3866666666666658E-005    0.20206064371432067     
   4.4066666666666663E-005    0.23959741516331762     
   4.4266666666666667E-005    0.26696160870776819     
   4.4466666666666659E-005    0.28196717343297084     
   4.4666666666666664E-005    0.28286417564435623     
   4.4866666666666655E-005    0.26843395714442103     
   4.5066666666666660E-005    0.23805844249632682     
   4.5266666666666665E-005    0.19175826137568114     
   4.5466666666666656E-005    0.13019761924621881     
   4.5666666666666661E-005     5.4654769305506584E-002
   4.5866666666666666E-005    -3.3039629524984154E-002
   4.6066666666666657E-005   -0.13059299310858302     
   4.6266666666666662E-005   -0.23536415495474847     
   4.6466666666666667E-005   -0.34449246524995392     
   4.6666666666666658E-005   -0.45503458619945136     
   4.6866666666666663E-005   -0.56410096932985843     
   4.7066666666666668E-005   -0.66898342170391778     
   4.7266666666666659E-005   -0.76726738482585011     
   4.7466666666666664E-005   -0.85692212935663958     
   4.7666666666666655E-005   -0.93636567658088921     
   4.7866666666666660E-005    -1.0045019726109170     
   4.8066666666666665E-005    -1.0607293494025782     
   4.8266666666666656E-005    -1.1049228725863716     
   4.8466666666666661E-005    -1.1373919896183180     
   4.8666666666666666E-005    -1.1588192143137652     
   4.8866666666666657E-005    -1.1701838144971135     
   4.9066666666666662E-005    -1.1726760970811037     
   4.9266666666666667E-005    -1.1676077949095423     
   4.9466666666666658E-005    -1.1563233690128636     
   4.9666666666666663E-005    -1.1401176686896126     
   4.9866666666666655E-005    -1.1201628872640581     
   5.0066666666666659E-005    -1.0974478611387677     
   5.0266666666666664E-005    -1.0727326689399419     
   5.0466666666666656E-005    -1.0465186851889010     
   5.0666666666666660E-005    -1.0190348994525877     
   5.0866666666666665E-005   -0.99023955983051115     
   5.1066666666666657E-005   -0.95983609456616936     
   5.1266666666666661E-005   -0.92730084972632065     
   5.1466666666666666E-005   -0.89192051206756118     
   5.1666666666666658E-005   -0.85283560011142778     
   5.1866666666666662E-005   -0.80908742726410543     
   5.2066666666666667E-005   -0.75966520032256468     
   5.2266666666666659E-005   -0.70354998346511621     
   5.2466666666666664E-005   -0.63975343263702888     
   5.2666666666666655E-005   -0.56734845921220733     
   5.2866666666666660E-005   -0.48549147676802734     
   5.3066666666666665E-005   -0.39343442494449682     
   5.3266666666666656E-005   -0.29052802431879415     
   5.3466666666666661E-005   -0.17621574021454445     
   5.3666666666666666E-005    -5.0020602024903882E-002
   5.3866666666666657E-005     8.8473000682314090E-002
   5.4066666666666662E-005    0.23964113820020549     
   5.4266666666666667E-005    0.40384344923695747     
   5.4466666666666658E-005    0.58144541719207843     
   5.4666666666666663E-005    0.77283824317173022     
   5.4866666666666668E-005    0.97845481394345624     
   5.5066666666666659E-005     1.1987804040709156     
   5.5266666666666664E-005     1.4343588090513475     
   5.5466666666666655E-005     1.6857908713434666     
   5.5666666666666660E-005     1.9537280050388151     
   5.5866666666666665E-005     2.2388594559938997     
   5.6066666666666656E-005     2.5418910422329342     
   5.6266666666666661E-005     2.8635202671253772     
   5.6466666666666666E-005     3.2044008528012138     
   5.6666666666666657E-005     3.5651023944343017     
   5.6866666666666662E-005     3.9460627479931882     
   5.7066666666666667E-005     4.3475321353511553     
   5.7266666666666658E-005     4.7695132727536595     
   5.7466666666666663E-005     5.2116943894340633     
   5.7666666666666654E-005     5.6733781118176694     
   5.7866666666666659E-005     6.1534124458635464     
   5.8066666666666664E-005     6.6501189522417077     
   5.8266666666666655E-005     7.1612293721040947     
   5.8466666666666660E-005     7.6838289403968485     
   5.8666666666666665E-005     8.2143137823211241     
   5.8866666666666656E-005     8.7483610542255938     
   5.9066666666666661E-005     9.2809229717219210     
   5.9266666666666666E-005     9.8062406705374485     
   5.9466666666666657E-005     10.317882187237338     
   5.9666666666666662E-005     10.808808672531271     
   5.9866666666666667E-005     11.271461863545285     
   6.0066666666666659E-005     11.697882739732032     
   6.0266666666666663E-005     12.079845875854158     
   6.0466666666666655E-005     12.409016902927297     
   6.0666666666666660E-005     12.677129728280891     
   6.0866666666666664E-005     12.876165055193603     
   6.1066666666666656E-005     12.998541126169235     
   6.1266666666666661E-005     13.037301929041353     
   6.1466666666666665E-005     12.986297886324909     
   6.1666666666666657E-005     12.840358770997721     
   6.1866666666666662E-005     12.595442993502072     
   6.2066666666666666E-005     12.248769372416596     
   6.2266666666666658E-005     11.798918682976877     
   6.2466666666666663E-005     11.245914813899228     
   6.2666666666666668E-005     10.591267820886982     
   6.2866666666666659E-005     9.8379922091107410     
   6.3066666666666664E-005     8.9905923788736217     
   6.3266666666666655E-005     8.0550220584217858     
   6.3466666666666660E-005     7.0386175487939182     
   6.3666666666666665E-005     5.9500072321249196     
   6.3866666666666656E-005     4.7990022627706121     
   6.4066666666666661E-005     3.5964729985941841     
   6.4266666666666666E-005     2.3542074627932994     
   6.4466666666666657E-005     1.0847643724776030     
   6.4666666666666662E-005   -0.19868346356969913     
   6.4866666666666667E-005    -1.4825112884433849     
   6.5066666666666658E-005    -2.7528070536086986     
   6.5266666666666663E-005    -3.9955370908625336     
   6.5466666666666654E-005    -5.1967069411108362     
   6.5666666666666659E-005    -6.3425256224195907     
   6.5866666666666664E-005    -7.4195553793585152     
   6.6066666666666655E-005    -8.4148551926948354     
   6.6266666666666660E-005    -9.3161115873256897     
   6.6466666666666665E-005    -10.111753809100293     
   6.6666666666666656E-005    -10.791043449718259     
   6.6866666666666661E-005    -11.344151040281456     
   6.7066666666666666E-005    -11.762195726055666     
   6.7266666666666657E-005    -12.037271326158415     
   6.7466666666666662E-005    -12.162431077266616     
   6.7666666666666667E-005    -12.131661566606784     
   6.7866666666666658E-005    -11.939829838113994     
   6.8066666666666663E-005    -11.582611143865151     
   6.8266666666666655E-005    -11.056418504558330     
   6.8466666666666659E-005    -10.358329046423666     
   6.8666666666666664E-005    -9.4860255448550426     
   6.8866666666666656E-005    -8.4377614964856615     
   6.9066666666666660E-005    -7.2123607266253194     
   6.9266666666666665E-005    -5.8092595654823835     
   6.9466666666666657E-005    -4.2286060370294294     
   6.9666666666666661E-005    -2.4714112697942250     
   6.9866666666666666E-005   -0.53975836680135303     
   7.0066666666666658E-005     1.5629341627090663     
   7.0266666666666662E-005     3.8316022097129485     
   7.0466666666666654E-005     6.2591970160754453     
   7.0666666666666659E-005     8.8363199364102183     
   7.0866666666666664E-005     11.550863360473112     
   7.1066666666666655E-005     14.387675339751617     
   7.1266666666666660E-005     17.328262992767410     
   7.1466666666666665E-005     20.350564315359129     
   7.1666666666666656E-005     23.428803487706880     
   7.1866666666666661E-005     26.533455822917585     
   7.2066666666666666E-005     29.631318064732262     
   7.2266666666666657E-005     32.685710029891155     
   7.2466666666666662E-005     35.656813924007004     
   7.2666666666666667E-005     38.502113245175586     
   7.2866666666666658E-005     41.176977750101713     
   7.3066666666666663E-005     43.635339048933325     
   7.3266666666666654E-005     45.830455711798400     
   7.3466666666666659E-005     47.715746829023594     
   7.3666666666666664E-005     49.245684402252834     
   7.3866666666666655E-005     50.376683010475276     
   7.4066666666666660E-005     51.068027618742619     
   7.4266666666666665E-005     51.282737063515199     
   7.4466666666666656E-005     50.988409071150834     
   7.4666666666666661E-005     50.157993318495791     
   7.4866666666666666E-005     48.770478836098647     
   7.5066666666666657E-005     46.811489578990994     
   7.5266666666666662E-005     44.273776777587791     
   7.5466666666666653E-005     41.157583664492996     