  -3.3333333333333335E-005     0.0000000000000000     
  -3.3133333333333337E-005     0.0000000000000000     
  -3.2933333333333332E-005     0.0000000000000000     
  -3.2733333333333334E-005     0.0000000000000000     
  -3.2533333333333336E-005     0.0000000000000000     
  -3.2333333333333338E-005     0.0000000000000000     
  -3.2133333333333333E-005     0.0000000000000000     
  -3.1933333333333335E-005     0.0000000000000000     
  -3.1733333333333337E-005     0.0000000000000000     
  -3.1533333333333332E-005     0.0000000000000000     
  -3.1333333333333334E-005     0.0000000000000000     
  -3.1133333333333336E-005     0.0000000000000000     
  -3.0933333333333338E-005     0.0000000000000000     
  -3.0733333333333333E-005     0.0000000000000000     
  -3.0533333333333335E-005     0.0000000000000000     
  -3.0333333333333337E-005     0.0000000000000000     
  -3.0133333333333335E-005     0.0000000000000000     
  -2.9933333333333334E-005     0.0000000000000000     
  -2.9733333333333336E-005     0.0000000000000000     
  -2.9533333333333334E-005     0.0000000000000000     
  -2.9333333333333336E-005     0.0000000000000000     
  -2.9133333333333334E-005     0.0000000000000000     
  -2.8933333333333336E-005     0.0000000000000000     
  -2.8733333333333335E-005     0.0000000000000000     
  -2.8533333333333333E-005     0.0000000000000000     
  -2.8333333333333335E-005     0.0000000000000000     
  -2.8133333333333337E-005     0.0000000000000000     
  -2.7933333333333336E-005     0.0000000000000000     
  -2.7733333333333334E-005     0.0000000000000000     
  -2.7533333333333336E-005     0.0000000000000000     
  -2.7333333333333335E-005     0.0000000000000000     
  -2.7133333333333333E-005     0.0000000000000000     
  -2.6933333333333335E-005     0.0000000000000000     
  -2.6733333333333337E-005     0.0000000000000000     
  -2.6533333333333336E-005     0.0000000000000000     
  -2.6333333333333334E-005     0.0000000000000000     
  -2.6133333333333336E-005     0.0000000000000000     
  -2.5933333333333335E-005     0.0000000000000000     
  -2.5733333333333333E-005     0.0000000000000000     
  -2.5533333333333335E-005     0.0000000000000000     
  -2.5333333333333337E-005     0.0000000000000000     
  -2.5133333333333336E-005     0.0000000000000000     
  -2.4933333333333334E-005     0.0000000000000000     
  -2.4733333333333336E-005     0.0000000000000000     
  -2.4533333333333334E-005     0.0000000000000000     
  -2.4333333333333333E-005     0.0000000000000000     
  -2.4133333333333335E-005     0.0000000000000000     
  -2.3933333333333337E-005     0.0000000000000000     
  -2.3733333333333335E-005     0.0000000000000000     
  -2.3533333333333334E-005     0.0000000000000000     
  -2.3333333333333336E-005     0.0000000000000000     
  -2.3133333333333338E-005     0.0000000000000000     
  -2.2933333333333336E-005     0.0000000000000000     
  -2.2733333333333335E-005     0.0000000000000000     
  -2.2533333333333337E-005     0.0000000000000000     
  -2.2333333333333335E-005     0.0000000000000000     
  -2.2133333333333334E-005     0.0000000000000000     
  -2.1933333333333336E-005     0.0000000000000000     
  -2.1733333333333338E-005     0.0000000000000000     
  -2.1533333333333336E-005     0.0000000000000000     
  -2.1333333333333335E-005     0.0000000000000000     
  -2.1133333333333337E-005     0.0000000000000000     
  -2.0933333333333335E-005     0.0000000000000000     
  -2.0733333333333334E-005     0.0000000000000000     
  -2.0533333333333336E-005     0.0000000000000000     
  -2.0333333333333337E-005     0.0000000000000000     
  -2.0133333333333336E-005     0.0000000000000000     
  -1.9933333333333334E-005     0.0000000000000000     
  -1.9733333333333336E-005     0.0000000000000000     
  -1.9533333333333335E-005     0.0000000000000000     
  -1.9333333333333333E-005     0.0000000000000000     
  -1.9133333333333335E-005     0.0000000000000000     
  -1.8933333333333337E-005     0.0000000000000000     
  -1.8733333333333336E-005     0.0000000000000000     
  -1.8533333333333334E-005     0.0000000000000000     
  -1.8333333333333336E-005     0.0000000000000000     
  -1.8133333333333335E-005     0.0000000000000000     
  -1.7933333333333337E-005     0.0000000000000000     
  -1.7733333333333335E-005     0.0000000000000000     
  -1.7533333333333337E-005     0.0000000000000000     
  -1.7333333333333336E-005     0.0000000000000000     
  -1.7133333333333334E-005     0.0000000000000000     
  -1.6933333333333336E-005     0.0000000000000000     
  -1.6733333333333335E-005     0.0000000000000000     
  -1.6533333333333337E-005     0.0000000000000000     
  -1.6333333333333335E-005     0.0000000000000000     
  -1.6133333333333337E-005     0.0000000000000000     
  -1.5933333333333336E-005     0.0000000000000000     
  -1.5733333333333334E-005     0.0000000000000000     
  -1.5533333333333336E-005     0.0000000000000000     
  -1.5333333333333334E-005     0.0000000000000000     
  -1.5133333333333336E-005     0.0000000000000000     
  -1.4933333333333335E-005     0.0000000000000000     
  -1.4733333333333337E-005     0.0000000000000000     
  -1.4533333333333335E-005     0.0000000000000000     
  -1.4333333333333337E-005     0.0000000000000000     
  -1.4133333333333336E-005     0.0000000000000000     
  -1.3933333333333334E-005     0.0000000000000000     
  -1.3733333333333336E-005     0.0000000000000000     
  -1.3533333333333335E-005     0.0000000000000000     
  -1.3333333333333337E-005     0.0000000000000000     
  -1.3133333333333335E-005     0.0000000000000000     
  -1.2933333333333337E-005     0.0000000000000000     
  -1.2733333333333336E-005     0.0000000000000000     
  -1.2533333333333338E-005     0.0000000000000000     
  -1.2333333333333336E-005     0.0000000000000000     
  -1.2133333333333335E-005     0.0000000000000000     
  -1.1933333333333337E-005     0.0000000000000000     
  -1.1733333333333335E-005     0.0000000000000000     
  -1.1533333333333337E-005     0.0000000000000000     
  -1.1333333333333336E-005     0.0000000000000000     
  -1.1133333333333337E-005     0.0000000000000000     
  -1.0933333333333336E-005     0.0000000000000000     
  -1.0733333333333334E-005     0.0000000000000000     
  -1.0533333333333336E-005     0.0000000000000000     
  -1.0333333333333335E-005     0.0000000000000000     
  -1.0133333333333337E-005     0.0000000000000000     
  -9.9333333333333354E-006     0.0000000000000000     
  -9.7333333333333373E-006     0.0000000000000000     
  -9.5333333333333358E-006     0.0000000000000000     
  -9.3333333333333343E-006     0.0000000000000000     
  -9.1333333333333362E-006     0.0000000000000000     
  -8.9333333333333348E-006     0.0000000000000000     
  -8.7333333333333367E-006     0.0000000000000000     
  -8.5333333333333352E-006     0.0000000000000000     
  -8.3333333333333371E-006     0.0000000000000000     
  -8.1333333333333356E-006     0.0000000000000000     
  -7.9333333333333376E-006     0.0000000000000000     
  -7.7333333333333361E-006     0.0000000000000000     
  -7.5333333333333346E-006     0.0000000000000000     
  -7.3333333333333365E-006     0.0000000000000000     
  -7.1333333333333351E-006     0.0000000000000000     
  -6.9333333333333370E-006     0.0000000000000000     
  -6.7333333333333355E-006     0.0000000000000000     
  -6.5333333333333374E-006     0.0000000000000000     
  -6.3333333333333359E-006     0.0000000000000000     
  -6.1333333333333379E-006     0.0000000000000000     
  -5.9333333333333364E-006     0.0000000000000000     
  -5.7333333333333349E-006     0.0000000000000000     
  -5.5333333333333368E-006     0.0000000000000000     
  -5.3333333333333354E-006     0.0000000000000000     
  -5.1333333333333373E-006     0.0000000000000000     
  -4.9333333333333358E-006     0.0000000000000000     
  -4.7333333333333377E-006     0.0000000000000000     
  -4.5333333333333362E-006     0.0000000000000000     
  -4.3333333333333348E-006     0.0000000000000000     
  -4.1333333333333367E-006     0.0000000000000000     
  -3.9333333333333352E-006     0.0000000000000000     
  -3.7333333333333371E-006     0.0000000000000000     
  -3.5333333333333356E-006     0.0000000000000000     
  -3.3333333333333376E-006     0.0000000000000000     
  -3.1333333333333361E-006     0.0000000000000000     
  -2.9333333333333346E-006     0.0000000000000000     
  -2.7333333333333365E-006     0.0000000000000000     
  -2.5333333333333384E-006     0.0000000000000000     
  -2.3333333333333336E-006     0.0000000000000000     
  -2.1333333333333355E-006     0.0000000000000000     
  -1.9333333333333374E-006     0.0000000000000000     
  -1.7333333333333393E-006     0.0000000000000000     
  -1.5333333333333345E-006     0.0000000000000000     
  -1.3333333333333364E-006     0.0000000000000000     
  -1.1333333333333383E-006     0.0000000000000000     
  -9.3333333333333343E-007     0.0000000000000000     
  -7.3333333333333535E-007     0.0000000000000000     
  -5.3333333333333726E-007     0.0000000000000000     
  -3.3333333333333918E-007     0.0000000000000000     
  -1.3333333333333432E-007     0.0000000000000000     
   6.6666666666663770E-008     0.0000000000000000     
   2.6666666666666185E-007     0.0000000000000000     
   4.6666666666666672E-007     0.0000000000000000     
   6.6666666666666480E-007     0.0000000000000000     
   8.6666666666666289E-007     0.0000000000000000     
   1.0666666666666610E-006     0.0000000000000000     
   1.2666666666666658E-006     0.0000000000000000     
   1.4666666666666639E-006     0.0000000000000000     
   1.6666666666666620E-006     0.0000000000000000     
   1.8666666666666669E-006     0.0000000000000000     
   2.0666666666666649E-006     0.0000000000000000     
   2.2666666666666630E-006     0.0000000000000000     
   2.4666666666666611E-006     0.0000000000000000     
   2.6666666666666660E-006     0.0000000000000000     
   2.8666666666666641E-006     0.0000000000000000     
   3.0666666666666622E-006     0.0000000000000000     
   3.2666666666666602E-006     0.0000000000000000     
   3.4666666666666651E-006     0.0000000000000000     
   3.6666666666666632E-006     0.0000000000000000     
   3.8666666666666613E-006     0.0000000000000000     
   4.0666666666666661E-006     0.0000000000000000     
   4.2666666666666642E-006     0.0000000000000000     
   4.4666666666666623E-006     0.0000000000000000     
   4.6666666666666604E-006     0.0000000000000000     
   4.8666666666666652E-006     0.0000000000000000     
   5.0666666666666633E-006     0.0000000000000000     
   5.2666666666666614E-006     0.0000000000000000     
   5.4666666666666663E-006     0.0000000000000000     
   5.6666666666666644E-006     0.0000000000000000     
   5.8666666666666624E-006     0.0000000000000000     
   6.0666666666666605E-006     0.0000000000000000     
   6.2666666666666654E-006     0.0000000000000000     
   6.4666666666666635E-006     0.0000000000000000     
   6.6666666666666616E-006     0.0000000000000000     
   6.8666666666666664E-006     0.0000000000000000     
   7.0666666666666645E-006     0.0000000000000000     
   7.2666666666666626E-006     0.0000000000000000     
   7.4666666666666607E-006     0.0000000000000000     
   7.6666666666666655E-006     0.0000000000000000     
   7.8666666666666636E-006     0.0000000000000000     
   8.0666666666666617E-006     0.0000000000000000     
   8.2666666666666598E-006     0.0000000000000000     
   8.4666666666666647E-006     0.0000000000000000     
   8.6666666666666627E-006     0.0000000000000000     
   8.8666666666666608E-006     0.0000000000000000     
   9.0666666666666657E-006     0.0000000000000000     
   9.2666666666666638E-006     0.0000000000000000     
   9.4666666666666619E-006     0.0000000000000000     
   9.6666666666666599E-006     0.0000000000000000     
   9.8666666666666648E-006     0.0000000000000000     
   1.0066666666666663E-005     0.0000000000000000     
   1.0266666666666661E-005     0.0000000000000000     
   1.0466666666666666E-005     0.0000000000000000     
   1.0666666666666664E-005     0.0000000000000000     
   1.0866666666666662E-005     0.0000000000000000     
   1.1066666666666660E-005     0.0000000000000000     
   1.1266666666666665E-005     0.0000000000000000     
   1.1466666666666663E-005     0.0000000000000000     
   1.1666666666666661E-005     0.0000000000000000     
   1.1866666666666666E-005     0.0000000000000000     
   1.2066666666666664E-005     0.0000000000000000     
   1.2266666666666662E-005     0.0000000000000000     
   1.2466666666666660E-005     0.0000000000000000     
   1.2666666666666665E-005     0.0000000000000000     
   1.2866666666666663E-005     0.0000000000000000     
   1.3066666666666661E-005     0.0000000000000000     
   1.3266666666666666E-005     0.0000000000000000     
   1.3466666666666664E-005     0.0000000000000000     
   1.3666666666666662E-005     1.1018851514261992E-036
   1.3866666666666660E-005     2.5803458802709203E-036
   1.4066666666666665E-005     4.0863222815533692E-036
   1.4266666666666663E-005     4.0863222815533692E-036
   1.4466666666666661E-005    -5.3625103078564186E-036
   1.4666666666666666E-005    -1.1947673211277067E-035
   1.4866666666666664E-005    -6.1057468164324681E-036
   1.5066666666666662E-005     1.3312394601932895E-035
   1.5266666666666661E-005     2.6540639190792521E-035
   1.5466666666666665E-005     5.1536467582963393E-035
   1.5666666666666663E-005     6.8777382385457679E-035
   1.5866666666666662E-005     7.9365509997245197E-035
   1.6066666666666660E-005     7.4893953593534957E-035
   1.6266666666666665E-005     5.7869386000833368E-035
   1.6466666666666663E-005     1.1675802834479099E-035
   1.6666666666666661E-005    -3.2531860686332651E-035
   1.6866666666666666E-005    -6.1250240915267696E-035
   1.7066666666666664E-005    -6.8316345235870524E-035
   1.7266666666666662E-005    -4.9881758394033178E-035
   1.7466666666666660E-005    -1.9711593854225273E-035
   1.7666666666666665E-005     7.5312030385005330E-036
   1.7866666666666663E-005     1.3831886479754240E-035
   1.8066666666666661E-005    -2.1850775463418461E-035
   1.8266666666666666E-005    -1.0948684101197109E-034
   1.8466666666666664E-005    -2.3110942141698417E-034
   1.8666666666666662E-005    -3.3825986409176278E-034
   1.8866666666666660E-005    -3.6198324567790182E-034
   1.9066666666666665E-005    -2.1072589019624491E-034
   1.9266666666666663E-005     1.6775295061648847E-034
   1.9466666666666661E-005     7.6838066277395254E-034
   1.9666666666666666E-005     1.4892832923891852E-033
   1.9866666666666664E-005     2.1199414298996158E-033
   2.0066666666666662E-005     2.3610230152967818E-033
   2.0266666666666660E-005     1.8893318461293455E-033
   2.0466666666666665E-005     4.6815302300695733E-034
   2.0666666666666663E-005    -1.9196267232729360E-033
   2.0866666666666661E-005    -4.9606688124165955E-033
   2.1066666666666659E-005    -7.9450612574002365E-033
   2.1266666666666664E-005    -9.8256663436716728E-033
   2.1466666666666662E-005    -9.4172268724830530E-033
   2.1666666666666660E-005    -5.7252474397318591E-033
   2.1866666666666665E-005     1.6080090483417017E-033
   2.2066666666666663E-005     1.1897498646882971E-032
   2.2266666666666661E-005     2.3152671915646119E-032
   2.2466666666666659E-005     3.2133090230151395E-032
   2.2666666666666664E-005     3.4838443458794857E-032
   2.2866666666666662E-005     2.7464164789271491E-032
   2.3066666666666660E-005     7.7184773744395480E-033
   2.3266666666666665E-005    -2.3764378604662898E-032
   2.3466666666666663E-005    -6.2314777553333235E-032
   2.3666666666666661E-005    -9.8898841878042697E-032
   2.3866666666666660E-005    -1.2099700719892491E-031
   2.4066666666666664E-005    -1.1492991645108233E-031
   2.4266666666666662E-005    -6.9522115453888697E-032
   2.4466666666666661E-005     1.9419941032487794E-032
   2.4666666666666665E-005     1.4481807107992034E-031
   2.4866666666666663E-005     2.8553035198140158E-031
   2.5066666666666662E-005     4.0646685648608967E-031
   2.5266666666666660E-005     4.6274374257125475E-031
   2.5466666666666665E-005     4.0832112829485078E-031
   2.5666666666666663E-005     2.0850721311834798E-031
   2.5866666666666661E-005    -1.4556776611204427E-031
   2.6066666666666666E-005    -6.2364724308299674E-031
   2.6266666666666664E-005    -1.1482258911487485E-030
   2.6466666666666662E-005    -1.5957721374559623E-030
   2.6666666666666660E-005    -1.8106028519048977E-030
   2.6866666666666665E-005    -1.6327170785463742E-030
   2.7066666666666663E-005    -9.3785368571315996E-031
   2.7266666666666661E-005     3.1568594332999516E-031
   2.7466666666666666E-005     2.0426407347798140E-030
   2.7666666666666664E-005     4.0008738281649347E-030
   2.7866666666666662E-005     5.7889876863871887E-030
   2.8066666666666667E-005     6.8827417335561209E-030
   2.8266666666666658E-005     6.7163782498639055E-030
   2.8466666666666663E-005     4.8063567877438620E-030
   2.8666666666666668E-005     9.0372438273138566E-031
   2.8866666666666659E-005    -4.8509653877643468E-030
   2.9066666666666664E-005    -1.1807081290619699E-029
   2.9266666666666669E-005    -1.8760635556185739E-029
   2.9466666666666660E-005    -2.4029212521316999E-029
   2.9666666666666665E-005    -2.5673151715292256E-029
   2.9866666666666656E-005    -2.1866038100436637E-029
   3.0066666666666661E-005    -1.1381920970650449E-029
   3.0266666666666666E-005     5.8751824553533241E-030
   3.0466666666666657E-005     2.8413728961296525E-029
   3.0666666666666662E-005     5.2910116415709413E-029
   3.0866666666666667E-005     7.4319963402264245E-029
   3.1066666666666658E-005     8.6453821589983156E-029
   3.1266666666666663E-005     8.3050456618476786E-029
   3.1466666666666668E-005     5.9267394495012935E-029
   3.1666666666666659E-005     1.3371700006592428E-029
   3.1866666666666664E-005    -5.1719524579682453E-029
   3.2066666666666656E-005    -1.2749143452995808E-028
   3.2266666666666660E-005    -1.9993132919463581E-028
   3.2466666666666665E-005    -2.5102785154849545E-028
   3.2666666666666657E-005    -2.6178725177580918E-028
   3.2866666666666661E-005    -2.1653454254101728E-028
   3.3066666666666666E-005    -1.0785094540184288E-028
   3.3266666666666658E-005     5.8893890474954412E-029
   3.3466666666666662E-005     2.6271319074482196E-028
   3.3666666666666667E-005     4.6717682291464640E-028
   3.3866666666666659E-005     6.2454032162464979E-028
   3.4066666666666664E-005     6.8406455693334000E-028
   3.4266666666666668E-005     6.0373209302300400E-028
   3.4466666666666660E-005     3.6340937862563917E-028
   3.4666666666666665E-005    -2.3521981254643394E-029
   3.4866666666666656E-005    -5.0359943224391449E-028
   3.5066666666666661E-005    -9.8510469246231584E-028
   3.5266666666666666E-005    -1.3504250991493975E-027
   3.5466666666666657E-005    -1.4789556932549741E-027
   3.5666666666666662E-005    -1.2777078585356659E-027
   3.5866666666666667E-005    -7.1381463752553268E-028
   3.6066666666666658E-005     1.5922852111989938E-028
   3.6266666666666663E-005     1.1906224101648277E-027
   3.6466666666666668E-005     2.1443525482751089E-027
   3.6666666666666659E-005     2.7382051503141410E-027
   3.6866666666666664E-005     2.7074977380948421E-027
   3.7066666666666669E-005     1.8838672492158297E-027
   3.7266666666666660E-005     2.7228255885949882E-028
   3.7466666666666665E-005    -1.8954232140681420E-027
   3.7666666666666656E-005    -4.1527232720828014E-027
   3.7866666666666661E-005    -5.8531587904193688E-027
   3.8066666666666666E-005    -6.2929780192152375E-027
   3.8266666666666657E-005    -4.8902269442207943E-027
   3.8466666666666662E-005    -1.3899191815539744E-027
   3.8666666666666667E-005     3.9519215790351105E-027
   3.8866666666666658E-005     1.0262145915716347E-026
   3.9066666666666663E-005     1.6076626255062587E-026
   3.9266666666666668E-005     1.9535399219955757E-026
   3.9466666666666659E-005     1.8750599715801469E-026
   3.9666666666666664E-005     1.2306722389141570E-026
   3.9866666666666655E-005    -1.9512196915988492E-028
   4.0066666666666660E-005    -1.7677168024229666E-026
   4.0266666666666665E-005    -3.7356776256189273E-026
   4.0466666666666656E-005    -5.4884978991824430E-026
   4.0666666666666661E-005    -6.4935486006696019E-026
   4.0866666666666666E-005    -6.2239184084553889E-026
   4.1066666666666657E-005    -4.2943738787485271E-026
   4.1266666666666662E-005    -6.0576432467067169E-027
   4.1466666666666667E-005     4.5359184656953344E-026
   4.1666666666666658E-005     1.0363784634452648E-025
   4.1866666666666663E-005     1.5691439341738766E-025
   4.2066666666666668E-005     1.9071523431336141E-025
   4.2266666666666660E-005     1.9068263217126282E-025
   4.2466666666666664E-005     1.4611523275155805E-025
   4.2666666666666656E-005     5.3697040750223095E-026
   4.2866666666666661E-005    -7.9448209383853550E-026
   4.3066666666666665E-005    -2.3433206866822651E-025
   4.3266666666666657E-005    -3.8114329860531908E-025
   4.3466666666666662E-005    -4.8323252471123520E-025
   4.3666666666666666E-005    -5.0392986828151889E-025
   4.3866666666666658E-005    -4.1535464299484721E-025
   4.4066666666666663E-005    -2.0763888918019737E-025
   4.4266666666666667E-005     1.0357169296205271E-025
   4.4466666666666659E-005     4.7367103750189078E-025
   4.4666666666666664E-005     8.3170137718562299E-025
   4.4866666666666655E-005     1.0901027260596938E-024
   4.5066666666666660E-005     1.1612398359098090E-024
   4.5266666666666665E-005     9.7857692393839436E-025
   4.5466666666666656E-005     5.1862521295823508E-025
   4.5666666666666661E-005    -1.8148769411190999E-025
   4.5866666666666666E-005    -1.0163465980042449E-024
   4.6066666666666657E-005    -1.8191104864264849E-024
   4.6266666666666662E-005    -2.3852706332924949E-024
   4.6466666666666667E-005    -2.5121963807902926E-024
   4.6666666666666658E-005    -2.0491918274107346E-024
   4.6866666666666663E-005    -9.4877681577515227E-025
   4.7066666666666668E-005     6.9294853395868607E-025
   4.7266666666666659E-005     2.6196798624180133E-024
   4.7466666666666664E-005     4.4325956213710240E-024
   4.7666666666666655E-005     5.6475285845414091E-024
   4.7866666666666660E-005     5.7886877493521095E-024
   4.8066666666666665E-005     4.5064168304511536E-024
   4.8266666666666656E-005     1.6973488196294903E-024
   4.8466666666666661E-005    -2.4010880833030814E-024
   4.8666666666666666E-005    -7.1712883647617894E-024
   4.8866666666666657E-005    -1.1655503493896403E-023
   4.9066666666666662E-005    -1.4687332610932318E-023
   4.9266666666666667E-005    -1.5108383963650412E-023
   4.9466666666666658E-005    -1.2042283573448075E-023
   4.9666666666666663E-005    -5.1774676703646491E-024
   4.9866666666666655E-005     5.0044109148513370E-024
   5.0066666666666659E-005     1.7121547527443571E-023
   5.0266666666666664E-005     2.8962886140226509E-023
   5.0466666666666656E-005     3.7766892542298710E-023
   5.0666666666666660E-005     4.0698441661062929E-023
   5.0866666666666665E-005     3.5466485790252855E-023
   5.1066666666666657E-005     2.0978897493687929E-023
   5.1266666666666661E-005    -2.1032946693039599E-024
   5.1466666666666666E-005    -3.1061587469694593E-023
   5.1666666666666658E-005    -6.1195316742668232E-023
   5.1866666666666662E-005    -8.6353125995673948E-023
   5.2066666666666667E-005    -9.9913764863280735E-023
   5.2266666666666659E-005    -9.6107914892372826E-023
   5.2466666666666664E-005    -7.1471391236424396E-023
   5.2666666666666655E-005    -2.6141477781049247E-023
   5.2866666666666660E-005     3.5324178438394605E-023
   5.3066666666666665E-005     1.0389619345921331E-022
   5.3266666666666656E-005     1.6697683727826183E-022
   5.3466666666666661E-005     2.1027915417072190E-022
   5.3666666666666666E-005     2.2049293389651457E-022
   5.3866666666666657E-005     1.8833479821412656E-022
   5.4066666666666662E-005     1.1140563809505076E-022
   5.4266666666666667E-005    -3.8054456796939830E-024
   5.4466666666666658E-005    -1.4139108676139182E-022
   5.4666666666666663E-005    -2.7740186447013770E-022
   5.4866666666666668E-005    -3.8324061844212689E-022
   5.5066666666666659E-005    -4.3077162106158057E-022
   5.5266666666666664E-005    -3.9840580670184046E-022
   5.5466666666666655E-005    -2.7705635601542538E-022
   5.5666666666666660E-005    -7.4658597552796262E-023
   5.5866666666666665E-005     1.8201248826645086E-022
   5.6066666666666656E-005     4.4916725152615936E-022
   5.6266666666666661E-005     6.7181833215451585E-022
   5.6466666666666666E-005     7.9315150075184716E-022
   5.6666666666666657E-005     7.6616862077384556E-022
   5.6866666666666662E-005     5.6558767208481285E-022
   5.7066666666666667E-005     1.9754948875890044E-022
   5.7266666666666658E-005    -2.9531471206072123E-022
   5.7466666666666663E-005    -8.3537355783158482E-022
   5.7666666666666654E-005    -1.3189289853994323E-021
   5.7866666666666659E-005    -1.6320910632847165E-021
   5.8066666666666664E-005    -1.6715712670498466E-021
   5.8266666666666655E-005    -1.3670472286985070E-021
   5.8466666666666660E-005    -7.0092207414253500E-022
   5.8666666666666665E-005     2.7876249175946290E-022
   5.8866666666666656E-005     1.4556913645351238E-021
   5.9066666666666661E-005     2.6547192478701268E-021
   5.9266666666666666E-005     3.6630207086747649E-021
   5.9466666666666657E-005     4.2602572278415551E-021
   5.9666666666666662E-005     4.2531845912661566E-021
   5.9866666666666667E-005     3.5090645444408170E-021
   6.0066666666666659E-005     1.9824368887984983E-021
   6.0266666666666663E-005    -2.6877866814298578E-022
   6.0466666666666655E-005    -3.0795164781976704E-021
   6.0666666666666660E-005    -6.1851210535366555E-021
   6.0866666666666664E-005    -9.2369990767896495E-021
   6.1066666666666656E-005    -1.1822342387801334E-020
   6.1266666666666661E-005    -1.3484942299496675E-020
   6.1466666666666665E-005    -1.3747134319868976E-020
   6.1666666666666657E-005    -1.2137320486599309E-020
   6.1866666666666662E-005    -8.2316620164273126E-021
   6.2066666666666666E-005    -1.7208456648916132E-021
   6.2266666666666658E-005     7.4891090891218488E-021
   6.2466666666666663E-005     1.9140510241253838E-020
   6.2666666666666668E-005     3.2464270259163447E-020
   6.2866666666666659E-005     4.6027192102851718E-020
   6.3066666666666664E-005     5.7635948216997477E-020
   6.3266666666666655E-005     6.4362464636005058E-020
   6.3466666666666660E-005     6.2759026717359298E-020
   6.3666666666666665E-005     4.9317367612766741E-020
   6.3866666666666656E-005     2.1189617564306684E-020
   6.4066666666666661E-005    -2.2870390407877616E-020
   6.4266666666666666E-005    -8.1463738791594135E-020
   6.4466666666666657E-005    -1.4960083535783180E-019
   6.4666666666666662E-005    -2.1812228010322251E-019
   6.4866666666666667E-005    -2.7378621035284797E-019
   6.5066666666666658E-005    -3.0029605651546539E-019
   6.5266666666666663E-005    -2.8043847438718184E-019
   6.5466666666666654E-005    -1.9931621255455579E-019
   6.5666666666666659E-005    -4.8405869507695857E-020
   6.5866666666666664E-005     1.7012260474390421E-019
   6.6066666666666655E-005     4.3966334937691498E-019
   6.6266666666666660E-005     7.2703840528460166E-019
   6.6466666666666665E-005     9.8302898798110764E-019
   6.6666666666666656E-005     1.1464426538940210E-018
   6.6866666666666661E-005     1.1521373788211423E-018
   6.7066666666666666E-005     9.4272275147808312E-019
   6.7266666666666657E-005     4.8278122448079552E-019
   6.7466666666666662E-005    -2.2647021269450181E-019
   6.7666666666666667E-005    -1.1349532185832360E-018
   6.7866666666666658E-005    -2.1372490007895054E-018
   6.8066666666666663E-005    -3.0750662610424193E-018
   6.8266666666666655E-005    -3.7510275042727903E-018
   6.8466666666666659E-005    -3.9545821773613708E-018
   6.8666666666666664E-005    -3.4986129267619277E-018
   6.8866666666666656E-005    -2.2626971445377662E-018
   6.9066666666666660E-005    -2.3642168660200344E-019
   6.9266666666666665E-005     2.4458030857034232E-018
   6.9466666666666657E-005     5.4877874989177030E-018
   6.9666666666666661E-005     8.4409157571412303E-018
   6.9866666666666666E-005     1.0745391312877212E-017
   7.0066666666666658E-005     1.1804163471790999E-017
   7.0266666666666662E-005     1.1084053944907448E-017
   7.0466666666666654E-005     8.2317499043673964E-018
   7.0666666666666659E-005     3.1861386261299679E-018
   7.0866666666666664E-005    -3.7356378089762413E-018
   7.1066666666666655E-005    -1.1801561988764520E-017
   7.1266666666666660E-005    -1.9896795659197389E-017
   7.1466666666666665E-005    -2.6634836875486942E-017
   7.1666666666666656E-005    -3.0545119808733341E-017
   7.1866666666666661E-005    -3.0318733709967379E-017
   7.2066666666666666E-005    -2.5078140865305022E-017
   7.2266666666666657E-005    -1.4624490364210975E-017
   7.2466666666666662E-005     3.8991701753070560E-019
   7.2666666666666667E-005     1.8412663241071072E-017
   7.2866666666666658E-005     3.7100033163571004E-017
   7.3066666666666663E-005     5.3592882994800404E-017
   7.3266666666666654E-005     6.4936682405397465E-017
   7.3466666666666659E-005     6.8588281145680156E-017
   7.3666666666666664E-005     6.2922398352157336E-017
   7.3866666666666655E-005     4.7634356935446123E-017
   7.4066666666666660E-005     2.3937270203414735E-017
   7.4266666666666665E-005    -5.5211820210173875E-018
   7.4466666666666656E-005    -3.7048532898633453E-017
   7.4666666666666661E-005    -6.6563091543244129E-017
   7.4866666666666666E-005    -9.0402033132883460E-017
   7.5066666666666657E-005    -1.0610571295506787E-016
   7.5266666666666662E-005    -1.1296812243081599E-016
   7.5466666666666653E-005    -1.1215205912569568E-016