  -3.3333333333333335E-005     0.0000000000000000     
  -3.3133333333333337E-005     0.0000000000000000     
  -3.2933333333333332E-005     0.0000000000000000     
  -3.2733333333333334E-005     0.0000000000000000     
  -3.2533333333333336E-005     0.0000000000000000     
  -3.2333333333333338E-005     0.0000000000000000     
  -3.2133333333333333E-005     0.0000000000000000     
  -3.1933333333333335E-005     0.0000000000000000     
  -3.1733333333333337E-005     0.0000000000000000     
  -3.1533333333333332E-005     0.0000000000000000     
  -3.1333333333333334E-005     0.0000000000000000     
  -3.1133333333333336E-005     0.0000000000000000     
  -3.0933333333333338E-005     0.0000000000000000     
  -3.0733333333333333E-005     0.0000000000000000     
  -3.0533333333333335E-005     0.0000000000000000     
  -3.0333333333333337E-005     0.0000000000000000     
  -3.0133333333333335E-005     0.0000000000000000     
  -2.9933333333333334E-005     0.0000000000000000     
  -2.9733333333333336E-005     0.0000000000000000     
  -2.9533333333333334E-005     0.0000000000000000     
  -2.9333333333333336E-005     0.0000000000000000     
  -2.9133333333333334E-005     0.0000000000000000     
  -2.8933333333333336E-005     0.0000000000000000     
  -2.8733333333333335E-005     0.0000000000000000     
  -2.8533333333333333E-005     0.0000000000000000     
  -2.8333333333333335E-005     0.0000000000000000     
  -2.8133333333333337E-005     0.0000000000000000     
  -2.7933333333333336E-005     0.0000000000000000     
  -2.7733333333333334E-005     0.0000000000000000     
  -2.7533333333333336E-005     0.0000000000000000     
  -2.7333333333333335E-005     0.0000000000000000     
  -2.7133333333333333E-005     0.0000000000000000     
  -2.6933333333333335E-005     0.0000000000000000     
  -2.6733333333333337E-005     0.0000000000000000     
  -2.6533333333333336E-005     0.0000000000000000     
  -2.6333333333333334E-005     0.0000000000000000     
  -2.6133333333333336E-005     0.0000000000000000     
  -2.5933333333333335E-005     0.0000000000000000     
  -2.5733333333333333E-005     0.0000000000000000     
  -2.5533333333333335E-005     0.0000000000000000     
  -2.5333333333333337E-005     0.0000000000000000     
  -2.5133333333333336E-005     0.0000000000000000     
  -2.4933333333333334E-005     0.0000000000000000     
  -2.4733333333333336E-005     0.0000000000000000     
  -2.4533333333333334E-005     0.0000000000000000     
  -2.4333333333333333E-005     0.0000000000000000     
  -2.4133333333333335E-005     0.0000000000000000     
  -2.3933333333333337E-005     0.0000000000000000     
  -2.3733333333333335E-005     0.0000000000000000     
  -2.3533333333333334E-005     0.0000000000000000     
  -2.3333333333333336E-005     0.0000000000000000     
  -2.3133333333333338E-005     0.0000000000000000     
  -2.2933333333333336E-005     0.0000000000000000     
  -2.2733333333333335E-005     0.0000000000000000     
  -2.2533333333333337E-005     0.0000000000000000     
  -2.2333333333333335E-005     0.0000000000000000     
  -2.2133333333333334E-005     0.0000000000000000     
  -2.1933333333333336E-005     0.0000000000000000     
  -2.1733333333333338E-005     0.0000000000000000     
  -2.1533333333333336E-005     0.0000000000000000     
  -2.1333333333333335E-005     0.0000000000000000     
  -2.1133333333333337E-005     0.0000000000000000     
  -2.0933333333333335E-005     0.0000000000000000     
  -2.0733333333333334E-005     0.0000000000000000     
  -2.0533333333333336E-005     0.0000000000000000     
  -2.0333333333333337E-005     0.0000000000000000     
  -2.0133333333333336E-005     0.0000000000000000     
  -1.9933333333333334E-005     0.0000000000000000     
  -1.9733333333333336E-005     0.0000000000000000     
  -1.9533333333333335E-005     0.0000000000000000     
  -1.9333333333333333E-005     0.0000000000000000     
  -1.9133333333333335E-005     0.0000000000000000     
  -1.8933333333333337E-005     0.0000000000000000     
  -1.8733333333333336E-005     0.0000000000000000     
  -1.8533333333333334E-005     0.0000000000000000     
  -1.8333333333333336E-005     0.0000000000000000     
  -1.8133333333333335E-005     0.0000000000000000     
  -1.7933333333333337E-005     0.0000000000000000     
  -1.7733333333333335E-005     0.0000000000000000     
  -1.7533333333333337E-005     0.0000000000000000     
  -1.7333333333333336E-005     0.0000000000000000     
  -1.7133333333333334E-005     0.0000000000000000     
  -1.6933333333333336E-005     0.0000000000000000     
  -1.6733333333333335E-005     0.0000000000000000     
  -1.6533333333333337E-005     0.0000000000000000     
  -1.6333333333333335E-005     0.0000000000000000     
  -1.6133333333333337E-005     0.0000000000000000     
  -1.5933333333333336E-005     0.0000000000000000     
  -1.5733333333333334E-005     0.0000000000000000     
  -1.5533333333333336E-005     0.0000000000000000     
  -1.5333333333333334E-005     0.0000000000000000     
  -1.5133333333333336E-005     0.0000000000000000     
  -1.4933333333333335E-005     0.0000000000000000     
  -1.4733333333333337E-005     0.0000000000000000     
  -1.4533333333333335E-005     0.0000000000000000     
  -1.4333333333333337E-005     0.0000000000000000     
  -1.4133333333333336E-005     0.0000000000000000     
  -1.3933333333333334E-005     0.0000000000000000     
  -1.3733333333333336E-005     0.0000000000000000     
  -1.3533333333333335E-005     0.0000000000000000     
  -1.3333333333333337E-005     0.0000000000000000     
  -1.3133333333333335E-005     0.0000000000000000     
  -1.2933333333333337E-005     0.0000000000000000     
  -1.2733333333333336E-005     0.0000000000000000     
  -1.2533333333333338E-005     0.0000000000000000     
  -1.2333333333333336E-005     0.0000000000000000     
  -1.2133333333333335E-005     0.0000000000000000     
  -1.1933333333333337E-005     0.0000000000000000     
  -1.1733333333333335E-005     0.0000000000000000     
  -1.1533333333333337E-005     0.0000000000000000     
  -1.1333333333333336E-005     0.0000000000000000     
  -1.1133333333333337E-005     0.0000000000000000     
  -1.0933333333333336E-005     0.0000000000000000     
  -1.0733333333333334E-005     0.0000000000000000     
  -1.0533333333333336E-005     0.0000000000000000     
  -1.0333333333333335E-005     0.0000000000000000     
  -1.0133333333333337E-005     0.0000000000000000     
  -9.9333333333333354E-006     0.0000000000000000     
  -9.7333333333333373E-006     0.0000000000000000     
  -9.5333333333333358E-006     0.0000000000000000     
  -9.3333333333333343E-006     0.0000000000000000     
  -9.1333333333333362E-006     0.0000000000000000     
  -8.9333333333333348E-006     0.0000000000000000     
  -8.7333333333333367E-006     0.0000000000000000     
  -8.5333333333333352E-006     0.0000000000000000     
  -8.3333333333333371E-006     0.0000000000000000     
  -8.1333333333333356E-006     0.0000000000000000     
  -7.9333333333333376E-006     0.0000000000000000     
  -7.7333333333333361E-006     0.0000000000000000     
  -7.5333333333333346E-006     0.0000000000000000     
  -7.3333333333333365E-006     0.0000000000000000     
  -7.1333333333333351E-006     0.0000000000000000     
  -6.9333333333333370E-006     0.0000000000000000     
  -6.7333333333333355E-006     0.0000000000000000     
  -6.5333333333333374E-006     0.0000000000000000     
  -6.3333333333333359E-006     0.0000000000000000     
  -6.1333333333333379E-006     0.0000000000000000     
  -5.9333333333333364E-006     0.0000000000000000     
  -5.7333333333333349E-006     0.0000000000000000     
  -5.5333333333333368E-006     0.0000000000000000     
  -5.3333333333333354E-006     0.0000000000000000     
  -5.1333333333333373E-006     0.0000000000000000     
  -4.9333333333333358E-006     0.0000000000000000     
  -4.7333333333333377E-006     0.0000000000000000     
  -4.5333333333333362E-006     0.0000000000000000     
  -4.3333333333333348E-006     0.0000000000000000     
  -4.1333333333333367E-006     0.0000000000000000     
  -3.9333333333333352E-006     0.0000000000000000     
  -3.7333333333333371E-006     0.0000000000000000     
  -3.5333333333333356E-006     0.0000000000000000     
  -3.3333333333333376E-006     0.0000000000000000     
  -3.1333333333333361E-006     0.0000000000000000     
  -2.9333333333333346E-006     0.0000000000000000     
  -2.7333333333333365E-006     0.0000000000000000     
  -2.5333333333333384E-006     0.0000000000000000     
  -2.3333333333333336E-006     0.0000000000000000     
  -2.1333333333333355E-006     0.0000000000000000     
  -1.9333333333333374E-006     0.0000000000000000     
  -1.7333333333333393E-006     0.0000000000000000     
  -1.5333333333333345E-006     0.0000000000000000     
  -1.3333333333333364E-006     0.0000000000000000     
  -1.1333333333333383E-006     0.0000000000000000     
  -9.3333333333333343E-007     0.0000000000000000     
  -7.3333333333333535E-007     0.0000000000000000     
  -5.3333333333333726E-007     0.0000000000000000     
  -3.3333333333333918E-007     0.0000000000000000     
  -1.3333333333333432E-007     0.0000000000000000     
   6.6666666666663770E-008     0.0000000000000000     
   2.6666666666666185E-007     0.0000000000000000     
   4.6666666666666672E-007     0.0000000000000000     
   6.6666666666666480E-007     0.0000000000000000     
   8.6666666666666289E-007     0.0000000000000000     
   1.0666666666666610E-006     0.0000000000000000     
   1.2666666666666658E-006     0.0000000000000000     
   1.4666666666666639E-006     0.0000000000000000     
   1.6666666666666620E-006     0.0000000000000000     
   1.8666666666666669E-006     0.0000000000000000     
   2.0666666666666649E-006     0.0000000000000000     
   2.2666666666666630E-006     0.0000000000000000     
   2.4666666666666611E-006     0.0000000000000000     
   2.6666666666666660E-006     0.0000000000000000     
   2.8666666666666641E-006     0.0000000000000000     
   3.0666666666666622E-006     0.0000000000000000     
   3.2666666666666602E-006     0.0000000000000000     
   3.4666666666666651E-006     0.0000000000000000     
   3.6666666666666632E-006     0.0000000000000000     
   3.8666666666666613E-006     0.0000000000000000     
   4.0666666666666661E-006     0.0000000000000000     
   4.2666666666666642E-006     0.0000000000000000     
   4.4666666666666623E-006     0.0000000000000000     
   4.6666666666666604E-006     0.0000000000000000     
   4.8666666666666652E-006     0.0000000000000000     
   5.0666666666666633E-006     0.0000000000000000     
   5.2666666666666614E-006     0.0000000000000000     
   5.4666666666666663E-006     0.0000000000000000     
   5.6666666666666644E-006     0.0000000000000000     
   5.8666666666666624E-006     0.0000000000000000     
   6.0666666666666605E-006     0.0000000000000000     
   6.2666666666666654E-006     0.0000000000000000     
   6.4666666666666635E-006     0.0000000000000000     
   6.6666666666666616E-006     0.0000000000000000     
   6.8666666666666664E-006     0.0000000000000000     
   7.0666666666666645E-006     0.0000000000000000     
   7.2666666666666626E-006     0.0000000000000000     
   7.4666666666666607E-006     0.0000000000000000     
   7.6666666666666655E-006     0.0000000000000000     
   7.8666666666666636E-006     0.0000000000000000     
   8.0666666666666617E-006     0.0000000000000000     
   8.2666666666666598E-006     0.0000000000000000     
   8.4666666666666647E-006     0.0000000000000000     
   8.6666666666666627E-006     0.0000000000000000     
   8.8666666666666608E-006     0.0000000000000000     
   9.0666666666666657E-006     0.0000000000000000     
   9.2666666666666638E-006     0.0000000000000000     
   9.4666666666666619E-006     0.0000000000000000     
   9.6666666666666599E-006     0.0000000000000000     
   9.8666666666666648E-006     0.0000000000000000     
   1.0066666666666663E-005     0.0000000000000000     
   1.0266666666666661E-005     0.0000000000000000     
   1.0466666666666666E-005     0.0000000000000000     
   1.0666666666666664E-005     0.0000000000000000     
   1.0866666666666662E-005     0.0000000000000000     
   1.1066666666666660E-005     0.0000000000000000     
   1.1266666666666665E-005     0.0000000000000000     
   1.1466666666666663E-005     0.0000000000000000     
   1.1666666666666661E-005     0.0000000000000000     
   1.1866666666666666E-005     0.0000000000000000     
   1.2066666666666664E-005     0.0000000000000000     
   1.2266666666666662E-005     0.0000000000000000     
   1.2466666666666660E-005     0.0000000000000000     
   1.2666666666666665E-005     0.0000000000000000     
   1.2866666666666663E-005     0.0000000000000000     
   1.3066666666666661E-005     0.0000000000000000     
   1.3266666666666666E-005     0.0000000000000000     
   1.3466666666666664E-005     0.0000000000000000     
   1.3666666666666662E-005    -6.0998217229513450E-037
   1.3866666666666660E-005    -1.4284293065730781E-036
   1.4066666666666665E-005    -2.2621084430543554E-036
   1.4266666666666663E-005    -2.2621084430543554E-036
   1.4466666666666661E-005     1.7887713636864646E-035
   1.4666666666666666E-005     3.7666790796540140E-035
   1.4866666666666664E-005     4.7657399362153453E-035
   1.5066666666666662E-005     3.6907893824742305E-035
   1.5266666666666661E-005     2.9584994498007695E-035
   1.5466666666666665E-005    -9.2555873878869279E-036
   1.5666666666666663E-005    -6.1529047741884848E-035
   1.5866666666666662E-005    -1.2469120611194725E-034
   1.6066666666666660E-005    -1.8610986758745020E-034
   1.6266666666666665E-005    -2.3458280059379767E-034
   1.6466666666666663E-005    -2.2979704625913839E-034
   1.6666666666666661E-005    -1.8209517555797043E-034
   1.6866666666666666E-005    -8.2657376315902432E-035
   1.7066666666666664E-005     6.7940043550644645E-035
   1.7266666666666662E-005     2.5191904638102246E-034
   1.7466666666666660E-005     4.5500626663671202E-034
   1.7666666666666665E-005     6.5260567314848849E-034
   1.7866666666666663E-005     7.8829036875226464E-034
   1.8066666666666661E-005     8.2307425678355386E-034
   1.8266666666666666E-005     7.0918804780757122E-034
   1.8466666666666664E-005     4.0144151454588472E-034
   1.8666666666666662E-005    -1.2877463701030127E-034
   1.8866666666666660E-005    -8.7256311996614912E-034
   1.9066666666666665E-005    -1.7738983008785969E-033
   1.9266666666666663E-005    -2.6932305758086223E-033
   1.9466666666666661E-005    -3.4095687516760624E-033
   1.9666666666666666E-005    -3.6113684382756170E-033
   1.9866666666666664E-005    -2.9961516129246872E-033
   2.0066666666666662E-005    -1.3109405037247933E-033
   2.0266666666666660E-005     1.5658767594143385E-033
   2.0466666666666665E-005     5.4458757788955879E-033
   2.0666666666666663E-005     9.7059657539274392E-033
   2.0866666666666661E-005     1.3351642464199743E-032
   2.1066666666666659E-005     1.5003598470872890E-032
   2.1266666666666664E-005     1.3181495534389971E-032
   2.1466666666666662E-005     6.6981923589639582E-033
   2.1666666666666660E-005    -4.8112193993889269E-033
   2.1866666666666665E-005    -2.0388504296527203E-032
   2.2066666666666663E-005    -3.7396225126636089E-032
   2.2266666666666661E-005    -5.1465534810003670E-032
   2.2466666666666659E-005    -5.6999962047714640E-032
   2.2666666666666664E-005    -4.8276662551300600E-032
   2.2866666666666662E-005    -2.1107824554625885E-032
   2.3066666666666660E-005     2.5176826167988066E-032
   2.3266666666666665E-005     8.5917387564171848E-032
   2.3466666666666663E-005     1.5001798789021781E-031
   2.3666666666666661E-005     2.0026142587586084E-031
   2.3866666666666660E-005     2.1551776738710403E-031
   2.4066666666666664E-005     1.7513182519341706E-031
   2.4266666666666662E-005     6.4894382273797483E-032
   2.4466666666666661E-005    -1.1591690852780676E-031
   2.4666666666666665E-005    -3.4851117638885423E-031
   2.4866666666666663E-005    -5.9126091610484770E-031
   2.5066666666666662E-005    -7.8126288589548880E-031
   2.5266666666666660E-005    -8.4231627572578517E-031
   2.5466666666666665E-005    -6.9982520150780912E-031
   2.5666666666666663E-005    -3.0141280880366675E-031
   2.5866666666666661E-005     3.5982401647173284E-031
   2.6066666666666666E-005     1.2244212468899531E-030
   2.6266666666666664E-005     2.1543213497463533E-030
   2.6466666666666662E-005     2.9358530006702141E-030
   2.6666666666666660E-005     3.3031485297654345E-030
   2.6866666666666665E-005     2.9841485152121660E-030
   2.7066666666666663E-005     1.7665912149355345E-030
   2.7266666666666661E-005    -4.2453246492658901E-031
   2.7466666666666666E-005    -3.4526322907380341E-030
   2.7666666666666664E-005    -6.9177244454365921E-030
   2.7866666666666662E-005    -1.0148644959914621E-029
   2.8066666666666667E-005    -1.2258383852634852E-029
   2.8266666666666658E-005    -1.2273809347783179E-029
   2.8466666666666663E-005    -9.3374327349093342E-030
   2.8666666666666668E-005    -2.9605741170657472E-030
   2.8866666666666659E-005     6.7132629077155822E-030
   2.9066666666666664E-005     1.8694544561805106E-029
   2.9266666666666669E-005     3.1054497897198465E-029
   2.9466666666666660E-005     4.1022079111267228E-029
   2.9666666666666665E-005     4.5321422804088997E-029
   2.9866666666666656E-005     4.0760736436344956E-029
   3.0066666666666661E-005     2.5026239370136428E-029
   3.0266666666666666E-005    -2.4339169128690974E-030
   3.0466666666666657E-005    -3.9617203494802882E-029
   3.0666666666666662E-005    -8.1494202908383604E-029
   3.0866666666666667E-005    -1.2009201168362232E-028
   3.1066666666666658E-005    -1.4532004487758023E-028
   3.1266666666666663E-005    -1.4660955127184470E-028
   3.1466666666666668E-005    -1.1526028678739223E-028
   3.1666666666666659E-005    -4.7171865322452868E-029
   3.1866666666666664E-005     5.4578152303481046E-029
   3.2066666666666656E-005     1.7800210103179728E-028
   3.2266666666666660E-005     3.0204272650977522E-028
   3.2466666666666665E-005     3.9857151495455442E-028
   3.2666666666666657E-005     4.3678617802295053E-028
   3.2866666666666661E-005     3.8972112056224162E-028
   3.3066666666666666E-005     2.4194769371381726E-028
   3.3266666666666658E-005    -3.0758694241808391E-030
   3.3466666666666662E-005    -3.1797144307844582E-028
   3.3666666666666667E-005    -6.5074519852346306E-028
   3.3866666666666659E-005    -9.2999305154570845E-028
   3.4066666666666664E-005    -1.0765499647447606E-027
   3.4266666666666668E-005    -1.0206270258390801E-027
   3.4466666666666660E-005    -7.2174166888013332E-028
   3.4666666666666665E-005    -1.8716295533114530E-028
   3.4866666666666656E-005     5.1636189590988817E-028
   3.5066666666666661E-005     1.2627016864844811E-027
   3.5266666666666666E-005     1.8818144004881074E-027
   3.5466666666666657E-005     2.1911772978270068E-027
   3.5666666666666662E-005     2.0396672779969796E-027
   3.5866666666666667E-005     1.3559726440577078E-027
   3.6066666666666658E-005     1.8993844908518820E-028
   3.6266666666666663E-005    -1.2664227757300317E-027
   3.6466666666666668E-005    -2.6901487685628074E-027
   3.6666666666666659E-005    -3.6776217770777362E-027
   3.6866666666666664E-005    -3.8323039961191637E-027
   3.7066666666666669E-005    -2.8775802707505732E-027
   3.7266666666666660E-005    -7.7165676562079507E-028
   3.7466666666666665E-005     2.2063775073200887E-027
   3.7666666666666656E-005     5.4321659120158741E-027
   3.7866666666666661E-005     7.9999008399764789E-027
   3.8066666666666666E-005     8.8854064505507977E-027
   3.8266666666666657E-005     7.1962195186474184E-027
   3.8466666666666662E-005     2.4689518625900446E-027
   3.8666666666666667E-005    -5.0512620357767775E-027
   3.8866666666666658E-005    -1.4230704062797063E-026
   3.9066666666666663E-005    -2.3047637540849073E-026
   3.9266666666666668E-005    -2.8833029404687266E-026
   3.9466666666666659E-005    -2.8766731192281679E-026
   3.9666666666666664E-005    -2.0582231507879639E-026
   3.9866666666666655E-005    -3.3635915811116088E-027
   4.0066666666666660E-005     2.1743162048684844E-026
   4.0266666666666665E-005     5.1116337765574953E-026
   4.0466666666666656E-005     7.8745679443947662E-026
   4.0666666666666661E-005     9.6959479343417655E-026
   4.0866666666666666E-005     9.7811677151161763E-026
   4.1066666666666657E-005     7.4988137737153678E-026
   4.1266666666666662E-005     2.5916376445003947E-026
   4.1466666666666667E-005    -4.6385563568867834E-026
   4.1666666666666658E-005    -1.3226288455968365E-025
   4.1866666666666663E-005    -2.1568721791381145E-025
   4.2066666666666668E-005    -2.7616462291499812E-025
   4.2266666666666660E-005    -2.9231662390510820E-025
   4.2466666666666664E-005    -2.4675825495107446E-025
   4.2666666666666656E-005    -1.3146506268761740E-025
   4.2866666666666661E-005     4.7537784284092541E-026
   4.3066666666666665E-005     2.6750514884696734E-025
   4.3266666666666657E-005     4.8955800587974988E-025
   4.3466666666666662E-005     6.6332187658697944E-025
   4.3666666666666666E-005     7.3565115248010988E-025
   4.3866666666666658E-005     6.6248341605234266E-025
   4.4066666666666663E-005     4.2182966260870785E-025
   4.4266666666666667E-005     2.5069985701228156E-026
   4.4466666666666659E-005    -4.7666155988977705E-025
   4.4666666666666664E-005    -9.9391297158156975E-025
   4.4866666666666655E-005    -1.4099860203420404E-024
   4.5066666666666660E-005    -1.6016057576389476E-024
   4.5266666666666665E-005    -1.4668003743817366E-024
   4.5466666666666656E-005    -9.5518897303562811E-025
   4.5666666666666661E-005    -9.3970904455891140E-026
   4.5866666666666666E-005     9.9787108117351617E-025
   4.6066666666666657E-005     2.1138157071968925E-024
   4.6266666666666662E-005     2.9864810534688322E-024
   4.6466666666666667E-005     3.3363542755697397E-024
   4.6666666666666658E-005     2.9367431761794211E-024
   4.6866666666666663E-005     1.6836263869679444E-024
   4.7066666666666668E-005    -3.4516500439570904E-025
   4.7266666666666659E-005    -2.8586021647823012E-024
   4.7466666666666664E-005    -5.3640435296411863E-024
   4.7666666666666655E-005    -7.2306036050862625E-024
   4.7866666666666660E-005    -7.8031698941483459E-024
   4.8066666666666665E-005    -6.5535984430601588E-024
   4.8266666666666656E-005    -3.2432507421680665E-024
   4.8466666666666661E-005     1.9384304315065943E-024
   4.8666666666666666E-005     8.2982645202913895E-024
   4.8866666666666657E-005     1.4661039876961301E-023
   4.9066666666666662E-005     1.9509363223231535E-023
   4.9266666666666667E-005     2.1240491658468268E-023
   4.9466666666666658E-005     1.8511835986805082E-023
   4.9666666666666663E-005     1.0619339428054035E-023
   4.9866666666666655E-005    -2.1686003221274550E-024
   5.0066666666666659E-005    -1.8408316925656550E-023
   5.0266666666666664E-005    -3.5487829210904514E-023
   5.0466666666666656E-005    -4.9894650772549292E-023
   5.0666666666666660E-005    -5.7749938340122875E-023
   5.0866666666666665E-005    -5.5556848225623286E-023
   5.1066666666666657E-005    -4.1051466382480195E-023
   5.1266666666666661E-005    -1.3995836074077304E-023
   5.1466666666666666E-005     2.3272015170969542E-023
   5.1666666666666658E-005     6.5705903491864384E-023
   5.1866666666666662E-005     1.0596148810706710E-022
   5.2066666666666667E-005     1.3538390465724657E-022
   5.2266666666666659E-005     1.4549250713626794E-022
   5.2466666666666664E-005     1.2975894774978625E-022
   5.2666666666666655E-005     8.5368173202076718E-023
   5.2866666666666660E-005     1.4590859655389219E-023
   5.3066666666666665E-005    -7.4600165047824731E-023
   5.3266666666666656E-005    -1.6895215760670973E-022
   5.3466666666666661E-005    -2.5151503414473742E-022
   5.3666666666666666E-005    -3.0428667326040222E-022
   5.3866666666666657E-005    -3.1158170550220060E-022
   5.4066666666666662E-005    -2.6356812195714340E-022
   5.4266666666666667E-005    -1.5927665869731642E-022
   5.4466666666666658E-005    -8.3674239558521156E-024
   5.4666666666666663E-005     1.6893240452964299E-022
   5.4866666666666668E-005     3.4403084881708102E-022
   5.5066666666666659E-005     4.8423367124149481E-022
   5.5266666666666664E-005     5.5854245000359262E-022
   5.5466666666666655E-005     5.4405255192229721E-022
   5.5666666666666660E-005     4.3172895741260783E-022
   5.5866666666666665E-005     2.3025936006928727E-022
   5.6066666666666656E-005    -3.3128513481900375E-023
   5.6266666666666661E-005    -3.1554865349172912E-022
   5.6466666666666666E-005    -5.6502933526875915E-022
   5.6666666666666657E-005    -7.2998542645220683E-022
   5.6866666666666662E-005    -7.7005077568239369E-022
   5.7066666666666667E-005    -6.6618548663800332E-022
   5.7266666666666658E-005    -4.2777001162810187E-022
   5.7466666666666663E-005    -9.4655653520297152E-023
   5.7666666666666654E-005     2.6713233436645125E-022
   5.7866666666666659E-005     5.7620950115788377E-022
   5.8066666666666664E-005     7.5196660012497064E-022
   5.8266666666666655E-005     7.3346328068049833E-022
   5.8466666666666660E-005     4.9745588878076178E-022
   5.8666666666666665E-005     7.1422273601021715E-023
   5.8866666666666656E-005    -4.6228955509861466E-022
   5.9066666666666661E-005    -9.7395579489941049E-022
   5.9266666666666666E-005    -1.3064936092814690E-021
   5.9466666666666657E-005    -1.3064376695769580E-021
   5.9666666666666662E-005    -8.6170974857214796E-022
   5.9866666666666667E-005     6.0315276138578154E-023
   6.0066666666666659E-005     1.3824603338526262E-021
   6.0266666666666663E-005     2.9034370695973719E-021
   6.0466666666666655E-005     4.3066605253980028E-021
   6.0666666666666660E-005     5.1964572562928741E-021
   6.0866666666666664E-005     5.1616151002665622E-021
   6.1066666666666656E-005     3.8609559819707547E-021
   6.1266666666666661E-005     1.1199756902606985E-021
   6.1466666666666665E-005    -2.9774737733887026E-021
   6.1666666666666657E-005    -8.0219644610030176E-021
   6.1866666666666662E-005    -1.3256234130267865E-020
   6.2066666666666666E-005    -1.7615933977374780E-020
   6.2266666666666658E-005    -1.9845071021518683E-020
   6.2466666666666663E-005    -1.8687443063360658E-020
   6.2666666666666668E-005    -1.3141583989311175E-020
   6.2866666666666659E-005    -2.7507665088252190E-021
   6.3066666666666664E-005     1.2116265347276854E-020
   6.3266666666666655E-005     3.0051112993707771E-020
   6.3466666666666660E-005     4.8522010835577130E-020
   6.3666666666666665E-005     6.3981515652181711E-020
   6.3866666666666656E-005     7.2210133902448770E-020
   6.4066666666666661E-005     6.8911072663297337E-020
   6.4266666666666666E-005     5.0527048172791653E-020
   6.4466666666666657E-005     1.5197317642993681E-020
   6.4666666666666662E-005    -3.6283007718151319E-020
   6.4866666666666667E-005    -9.9687652134782524E-020
   6.5066666666666658E-005    -1.6698156731349308E-019
   6.5266666666666663E-005    -2.2655081110543745E-019
   6.5466666666666654E-005    -2.6420035027609478E-019
   6.5666666666666659E-005    -2.6498407805709463E-019
   6.5866666666666664E-005    -2.1578859680005729E-019
   6.6066666666666655E-005    -1.0841977780885002E-019
   6.6266666666666660E-005     5.7239476671991690E-020
   6.6466666666666665E-005     2.7058104057556984E-019
   6.6666666666666656E-005     5.0879739891408364E-019
   6.6866666666666661E-005     7.3721846538450348E-019
   6.7066666666666666E-005     9.1193860459646278E-019
   6.7266666666666657E-005     9.8491041028435950E-019
   6.7466666666666662E-005     9.1125700777171908E-019
   6.7666666666666667E-005     6.5806539747293941E-019
   6.7866666666666658E-005     2.1344005009526024E-019
   6.8066666666666663E-005    -4.0576574636843333E-019
   6.8266666666666655E-005    -1.1492677858786193E-018
   6.8466666666666659E-005    -1.9332745335400543E-018
   6.8666666666666664E-005    -2.6460591693042953E-018
   6.8866666666666656E-005    -3.1593745770253553E-018
   6.9066666666666660E-005    -3.3448477023089859E-018
   6.9266666666666665E-005    -3.0933574991326513E-018
   6.9466666666666657E-005    -2.3345164808372234E-018
   6.9666666666666661E-005    -1.0529040362507590E-018
   6.9866666666666666E-005     7.0209834112945674E-019
   7.0066666666666658E-005     2.8150567179422479E-018
   7.0266666666666662E-005     5.1123298052895775E-018
   7.0466666666666654E-005     7.3774476938899800E-018
   7.0666666666666659E-005     9.3703987591323662E-018
   7.0866666666666664E-005     1.0845804421796249E-017
   7.1066666666666655E-005     1.1564825378993681E-017
   7.1266666666666660E-005     1.1297282081669529E-017
   7.1466666666666665E-005     9.8139983508516913E-018
   7.1666666666666656E-005     6.8745384250699903E-018
   7.1866666666666661E-005     2.2212022494945029E-018
   7.2066666666666666E-005    -4.4050754923057128E-018
   7.2266666666666657E-005    -1.3209310894766466E-017
   7.2466666666666662E-005    -2.4233089842798399E-017
   7.2666666666666667E-005    -3.7186311410182735E-017
   7.2866666666666658E-005    -5.1231907694504600E-017
   7.3066666666666663E-005    -6.4757898896522704E-017
   7.3266666666666654E-005    -7.5196507945358087E-017
   7.3466666666666659E-005    -7.8972521267213654E-017
   7.3666666666666664E-005    -7.1675590506968973E-017
   7.3866666666666655E-005    -4.8545496380173283E-017
   7.4066666666666660E-005    -5.3282040928312164E-018
   7.4266666666666665E-005     6.0500062794022349E-017
   7.4466666666666656E-005     1.4823362450569954E-016
   7.4666666666666661E-005     2.5236700800819597E-016
   7.4866666666666666E-005     3.6127336922891118E-016
   7.5066666666666657E-005     4.5654864098769975E-016
   7.5266666666666662E-005     5.1348550748786417E-016
   7.5466666666666653E-005     5.0310702454339404E-016